# Probe 0 (1 0 0)
# Probe 1 (2 0 0)
# Probe 2 (3 0 0)
# Probe 3 (4 0 0)
# Probe 4 (5 0 0)
#          Probe                0                1                2                3                4
#           Time
         2.5e-06       101325.006       101325.001       101325.001           101325           101325
           5e-06       101325.008       101325.002       101325.001       101325.001           101325
         7.5e-06       101325.008       101325.002       101325.001       101325.001       101325.001
           1e-05       101325.009       101325.002       101325.001       101325.001       101325.001
        1.25e-05       101325.009       101325.002       101325.001       101325.001       101325.001
         1.5e-05       101325.009       101325.002       101325.001       101325.001       101325.001
        1.75e-05       101325.009       101325.002       101325.001       101325.001       101325.001
           2e-05       101325.009       101325.002       101325.001       101325.001       101325.001
        2.25e-05       101325.009       101325.002       101325.001       101325.001       101325.001
         2.5e-05       101325.009       101325.002       101325.001       101325.001       101325.001
        2.75e-05       101325.009       101325.002       101325.001       101325.001       101325.001
           3e-05       101325.009       101325.002       101325.001       101325.001       101325.001
        3.25e-05       101325.009       101325.002       101325.001       101325.001       101325.001
         3.5e-05       101325.009       101325.002       101325.001       101325.001       101325.001
        3.75e-05       101325.009       101325.002       101325.001       101325.001       101325.001
           4e-05       101325.009       101325.002       101325.001       101325.001       101325.001
        4.25e-05       101325.009       101325.002       101325.001       101325.001       101325.001
         4.5e-05       101325.009       101325.002       101325.001       101325.001       101325.001
        4.75e-05       101325.009       101325.002       101325.001       101325.001       101325.001
           5e-05       101325.009       101325.002       101325.001       101325.001       101325.001
        5.25e-05       101325.009       101325.002       101325.001       101325.001       101325.001
         5.5e-05       101325.009       101325.002       101325.001       101325.001       101325.001
        5.75e-05       101325.009       101325.002       101325.001       101325.001       101325.001
           6e-05       101325.009       101325.002       101325.001       101325.001       101325.001
        6.25e-05       101325.009       101325.002       101325.001       101325.001       101325.001
         6.5e-05       101325.009       101325.002       101325.001       101325.001       101325.001
        6.75e-05       101325.009       101325.002       101325.001       101325.001       101325.001
           7e-05       101325.009       101325.002       101325.001       101325.001       101325.001
        7.25e-05       101325.009       101325.002       101325.001       101325.001       101325.001
         7.5e-05       101325.009       101325.002       101325.001       101325.001       101325.001
        7.75e-05       101325.009       101325.002       101325.001       101325.001       101325.001
           8e-05       101325.009       101325.002       101325.001       101325.001       101325.001
        8.25e-05       101325.009       101325.002       101325.001       101325.001       101325.001
         8.5e-05       101325.009       101325.002       101325.001       101325.001       101325.001
        8.75e-05       101325.009       101325.002       101325.001       101325.001       101325.001
           9e-05       101325.009       101325.002       101325.001       101325.001       101325.001
        9.25e-05       101325.009       101325.002       101325.001       101325.001       101325.001
         9.5e-05       101325.009       101325.002       101325.001       101325.001       101325.001
        9.75e-05       101325.009       101325.002       101325.001       101325.001       101325.001
          0.0001       101325.009       101325.002       101325.001       101325.001       101325.001
       0.0001025       101325.009       101325.002       101325.001       101325.001       101325.001
        0.000105       101325.009       101325.002       101325.001       101325.001       101325.001
       0.0001075       101325.009       101325.002       101325.001       101325.001       101325.001
         0.00011       101325.009       101325.002       101325.001       101325.001       101325.001
       0.0001125       101325.009       101325.002       101325.001       101325.001       101325.001
        0.000115       101325.009       101325.002       101325.001       101325.001       101325.001
       0.0001175       101325.009       101325.002       101325.001       101325.001       101325.001
         0.00012       101325.009       101325.002       101325.001       101325.001       101325.001
       0.0001225       101325.009       101325.002       101325.001       101325.001       101325.001
        0.000125       101325.009       101325.002       101325.001       101325.001       101325.001
       0.0001275       101325.009       101325.002       101325.001       101325.001       101325.001
         0.00013       101325.009       101325.002       101325.001       101325.001       101325.001
       0.0001325       101325.009       101325.002       101325.001       101325.001       101325.001
        0.000135       101325.009       101325.002       101325.001       101325.001       101325.001
       0.0001375       101325.009       101325.002       101325.001       101325.001       101325.001
         0.00014       101325.009       101325.002       101325.001       101325.001       101325.001
       0.0001425       101325.009       101325.002       101325.001       101325.001       101325.001
        0.000145       101325.009       101325.002       101325.001       101325.001       101325.001
       0.0001475       101325.009       101325.002       101325.001       101325.001       101325.001
         0.00015       101325.009       101325.002       101325.001       101325.001       101325.001
       0.0001525       101325.009       101325.002       101325.001       101325.001       101325.001
        0.000155       101325.009       101325.002       101325.001       101325.001       101325.001
       0.0001575       101325.009       101325.002       101325.001       101325.001       101325.001
         0.00016       101325.009       101325.002       101325.001       101325.001       101325.001
       0.0001625       101325.009       101325.002       101325.001       101325.001       101325.001
        0.000165       101325.009       101325.002       101325.001       101325.001       101325.001
       0.0001675       101325.009       101325.002       101325.001       101325.001       101325.001
         0.00017       101325.009       101325.002       101325.001       101325.001       101325.001
       0.0001725       101325.009       101325.002       101325.001       101325.001       101325.001
        0.000175       101325.009       101325.002       101325.001       101325.001       101325.001
       0.0001775       101325.009       101325.002       101325.001       101325.001       101325.001
         0.00018       101325.009       101325.002       101325.001       101325.001       101325.001
       0.0001825       101325.009       101325.002       101325.001       101325.001       101325.001
        0.000185       101325.009       101325.002       101325.001       101325.001       101325.001
       0.0001875       101325.009       101325.002       101325.001       101325.001       101325.001
         0.00019       101325.009       101325.002       101325.001       101325.001       101325.001
       0.0001925       101325.009       101325.002       101325.001       101325.001       101325.001
        0.000195       101325.009       101325.002       101325.001       101325.001       101325.001
       0.0001975       101325.009       101325.002       101325.001       101325.001       101325.001
          0.0002       101325.009       101325.002       101325.001       101325.001       101325.001
       0.0002025       101325.009       101325.002       101325.001       101325.001       101325.001
        0.000205       101325.009       101325.002       101325.001       101325.001       101325.001
       0.0002075       101325.009       101325.002       101325.001       101325.001       101325.001
         0.00021       101325.009       101325.002       101325.001       101325.001       101325.001
       0.0002125       101325.009       101325.002       101325.001       101325.001       101325.001
        0.000215       101325.009       101325.002       101325.001       101325.001       101325.001
       0.0002175       101325.009       101325.002       101325.001       101325.001       101325.001
         0.00022       101325.009       101325.002       101325.001       101325.001       101325.001
       0.0002225       101325.009       101325.002       101325.001       101325.001       101325.001
        0.000225       101325.009       101325.002       101325.001       101325.001       101325.001
       0.0002275       101325.009       101325.002       101325.001       101325.001       101325.001
         0.00023       101325.009       101325.002       101325.001       101325.001       101325.001
       0.0002325       101325.009       101325.002       101325.001       101325.001       101325.001
        0.000235       101325.009       101325.002       101325.001       101325.001       101325.001
       0.0002375       101325.009       101325.002       101325.001       101325.001       101325.001
         0.00024       101325.009       101325.002       101325.001       101325.001       101325.001
       0.0002425       101325.009       101325.002       101325.001       101325.001       101325.001
        0.000245       101325.009       101325.002       101325.001       101325.001       101325.001
       0.0002475       101325.009       101325.002       101325.001       101325.001       101325.001
         0.00025       101325.009       101325.002       101325.001       101325.001       101325.001
       0.0002525       101325.009       101325.002       101325.001       101325.001       101325.001
        0.000255       101325.009       101325.002       101325.001       101325.001       101325.001
       0.0002575       101325.009       101325.002       101325.001       101325.001       101325.001
         0.00026       101325.009       101325.002       101325.001       101325.001       101325.001
       0.0002625       101325.009       101325.002       101325.001       101325.001       101325.001
        0.000265       101325.009       101325.002       101325.001       101325.001       101325.001
       0.0002675       101325.009       101325.002       101325.001       101325.001       101325.001
         0.00027       101325.009       101325.002       101325.001       101325.001       101325.001
       0.0002725       101325.009       101325.002       101325.001       101325.001       101325.001
        0.000275       101325.009       101325.002       101325.001       101325.001       101325.001
       0.0002775       101325.009       101325.002       101325.001       101325.001       101325.001
         0.00028       101325.009       101325.002       101325.001       101325.001       101325.001
       0.0002825       101325.009       101325.002       101325.001       101325.001       101325.001
        0.000285       101325.009       101325.002       101325.001       101325.001       101325.001
       0.0002875       101325.009       101325.002       101325.001       101325.001       101325.001
         0.00029       101325.009       101325.002       101325.001       101325.001       101325.001
       0.0002925       101325.009       101325.002       101325.001       101325.001       101325.001
        0.000295       101325.009       101325.002       101325.001       101325.001       101325.001
       0.0002975       101325.009       101325.002       101325.001       101325.001       101325.001
          0.0003       101325.009       101325.002       101325.001       101325.001       101325.001
       0.0003025       101325.009       101325.002       101325.001       101325.001       101325.001
        0.000305       101325.009       101325.002       101325.001       101325.001       101325.001
       0.0003075       101325.009       101325.002       101325.001       101325.001       101325.001
         0.00031       101325.009       101325.002       101325.001       101325.001       101325.001
       0.0003125       101325.009       101325.002       101325.001       101325.001       101325.001
        0.000315       101325.009       101325.002       101325.001       101325.001       101325.001
       0.0003175       101325.009       101325.002       101325.001       101325.001       101325.001
         0.00032       101325.009       101325.002       101325.001       101325.001       101325.001
       0.0003225       101325.009       101325.002       101325.001       101325.001       101325.001
        0.000325       101325.009       101325.002       101325.001       101325.001       101325.001
       0.0003275       101325.009       101325.002       101325.001       101325.001       101325.001
         0.00033       101325.009       101325.002       101325.001       101325.001       101325.001
       0.0003325       101325.009       101325.002       101325.001       101325.001       101325.001
        0.000335       101325.009       101325.002       101325.001       101325.001       101325.001
       0.0003375       101325.009       101325.002       101325.001       101325.001       101325.001
         0.00034       101325.009       101325.002       101325.001       101325.001       101325.001
       0.0003425       101325.009       101325.002       101325.001       101325.001       101325.001
        0.000345       101325.009       101325.002       101325.001       101325.001       101325.001
       0.0003475       101325.009       101325.002       101325.001       101325.001       101325.001
         0.00035       101325.009       101325.002       101325.001       101325.001       101325.001
       0.0003525       101325.009       101325.002       101325.001       101325.001       101325.001
        0.000355       101325.009       101325.002       101325.001       101325.001       101325.001
       0.0003575       101325.009       101325.002       101325.001       101325.001       101325.001
         0.00036       101325.009       101325.002       101325.001       101325.001       101325.001
       0.0003625       101325.009       101325.002       101325.001       101325.001       101325.001
        0.000365       101325.009       101325.002       101325.001       101325.001       101325.001
       0.0003675       101325.009       101325.002       101325.001       101325.001       101325.001
         0.00037       101325.009       101325.002       101325.001       101325.001       101325.001
       0.0003725       101325.009       101325.002       101325.001       101325.001       101325.001
        0.000375       101325.009       101325.002       101325.001       101325.001       101325.001
       0.0003775       101325.009       101325.002       101325.001       101325.001       101325.001
         0.00038       101325.009       101325.002       101325.001       101325.001       101325.001
       0.0003825       101325.009       101325.002       101325.001       101325.001       101325.001
        0.000385       101325.009       101325.002       101325.001       101325.001       101325.001
       0.0003875       101325.009       101325.002       101325.001       101325.001       101325.001
         0.00039       101325.009       101325.002       101325.001       101325.001       101325.001
       0.0003925       101325.009       101325.002       101325.001       101325.001       101325.001
        0.000395       101325.009       101325.002       101325.001       101325.001       101325.001
       0.0003975       101325.009       101325.002       101325.001       101325.001       101325.001
          0.0004       101325.009       101325.002       101325.001       101325.001       101325.001
       0.0004025       101325.009       101325.002       101325.001       101325.001       101325.001
        0.000405       101325.009       101325.002       101325.001       101325.001       101325.001
       0.0004075       101325.009       101325.002       101325.001       101325.001       101325.001
         0.00041       101325.009       101325.002       101325.001       101325.001       101325.001
       0.0004125       101325.009       101325.002       101325.001       101325.001       101325.001
        0.000415       101325.009       101325.002       101325.001       101325.001       101325.001
       0.0004175       101325.009       101325.002       101325.001       101325.001       101325.001
         0.00042       101325.009       101325.002       101325.001       101325.001       101325.001
       0.0004225       101325.009       101325.002       101325.001       101325.001       101325.001
        0.000425       101325.009       101325.002       101325.001       101325.001       101325.001
       0.0004275       101325.009       101325.002       101325.001       101325.001       101325.001
         0.00043       101325.009       101325.002       101325.001       101325.001       101325.001
       0.0004325       101325.009       101325.002       101325.001       101325.001       101325.001
        0.000435       101325.009       101325.002       101325.001       101325.001       101325.001
       0.0004375       101325.009       101325.002       101325.001       101325.001       101325.001
         0.00044       101325.009       101325.002       101325.001       101325.001       101325.001
       0.0004425       101325.009       101325.002       101325.001       101325.001       101325.001
        0.000445       101325.009       101325.002       101325.001       101325.001       101325.001
       0.0004475       101325.009       101325.002       101325.001       101325.001       101325.001
         0.00045       101325.009       101325.002       101325.001       101325.001       101325.001
       0.0004525       101325.009       101325.002       101325.001       101325.001       101325.001
        0.000455       101325.009       101325.002       101325.001       101325.001       101325.001
       0.0004575       101325.009       101325.002       101325.001       101325.001       101325.001
         0.00046       101325.009       101325.002       101325.001       101325.001       101325.001
       0.0004625       101325.009       101325.002       101325.001       101325.001       101325.001
        0.000465       101325.009       101325.002       101325.001       101325.001       101325.001
       0.0004675       101325.009       101325.002       101325.001       101325.001       101325.001
         0.00047       101325.009       101325.002       101325.001       101325.001       101325.001
       0.0004725       101325.009       101325.002       101325.001       101325.001       101325.001
        0.000475       101325.009       101325.002       101325.001       101325.001       101325.001
       0.0004775       101325.009       101325.002       101325.001       101325.001       101325.001
         0.00048       101325.009       101325.002       101325.001       101325.001       101325.001
       0.0004825       101325.009       101325.002       101325.001       101325.001       101325.001
        0.000485       101325.009       101325.002       101325.001       101325.001       101325.001
       0.0004875       101325.009       101325.002       101325.001       101325.001       101325.001
         0.00049       101325.009       101325.002       101325.001       101325.001       101325.001
       0.0004925       101325.009       101325.002       101325.001       101325.001       101325.001
        0.000495       101325.009       101325.002       101325.001       101325.001       101325.001
       0.0004975       101325.009       101325.002       101325.001       101325.001       101325.001
          0.0005       101325.009       101325.002       101325.001       101325.001       101325.001
       0.0005025       101325.009       101325.002       101325.001       101325.001       101325.001
        0.000505       101325.009       101325.002       101325.001       101325.001       101325.001
       0.0005075       101325.009       101325.002       101325.001       101325.001       101325.001
         0.00051       101325.009       101325.002       101325.001       101325.001       101325.001
       0.0005125       101325.009       101325.002       101325.001       101325.001       101325.001
        0.000515       101325.009       101325.002       101325.001       101325.001       101325.001
       0.0005175       101325.009       101325.002       101325.001       101325.001       101325.001
         0.00052       101325.009       101325.002       101325.001       101325.001       101325.001
       0.0005225       101325.009       101325.002       101325.001       101325.001       101325.001
        0.000525       101325.009       101325.002       101325.001       101325.001       101325.001
       0.0005275       101325.009       101325.002       101325.001       101325.001       101325.001
         0.00053       101325.009       101325.002       101325.001       101325.001       101325.001
       0.0005325       101325.009       101325.002       101325.001       101325.001       101325.001
        0.000535       101325.009       101325.002       101325.001       101325.001       101325.001
       0.0005375       101325.009       101325.002       101325.001       101325.001       101325.001
         0.00054       101325.009       101325.002       101325.001       101325.001       101325.001
       0.0005425       101325.009       101325.002       101325.001       101325.001       101325.001
        0.000545       101325.009       101325.002       101325.001       101325.001       101325.001
       0.0005475       101325.009       101325.002       101325.001       101325.001       101325.001
         0.00055       101325.009       101325.002       101325.001       101325.001       101325.001
       0.0005525       101325.009       101325.002       101325.001       101325.001       101325.001
        0.000555       101325.009       101325.002       101325.001       101325.001       101325.001
       0.0005575       101325.009       101325.002       101325.001       101325.001       101325.001
         0.00056       101325.009       101325.002       101325.001       101325.001       101325.001
       0.0005625       101325.009       101325.002       101325.001       101325.001       101325.001
        0.000565       101325.009       101325.002       101325.001       101325.001       101325.001
       0.0005675       101325.009       101325.002       101325.001       101325.001       101325.001
         0.00057       101325.009       101325.002       101325.001       101325.001       101325.001
       0.0005725       101325.009       101325.002       101325.001       101325.001       101325.001
        0.000575       101325.009       101325.002       101325.001       101325.001       101325.001
       0.0005775       101325.009       101325.002       101325.001       101325.001       101325.001
         0.00058       101325.009       101325.002       101325.001       101325.001       101325.001
       0.0005825       101325.009       101325.002       101325.001       101325.001       101325.001
        0.000585       101325.009       101325.002       101325.001       101325.001       101325.001
       0.0005875       101325.009       101325.002       101325.001       101325.001       101325.001
         0.00059       101325.009       101325.002       101325.001       101325.001       101325.001
       0.0005925       101325.009       101325.002       101325.001       101325.001       101325.001
        0.000595       101325.009       101325.002       101325.001       101325.001       101325.001
       0.0005975       101325.009       101325.002       101325.001       101325.001       101325.001
          0.0006       101325.009       101325.002       101325.001       101325.001       101325.001
       0.0006025       101325.009       101325.002       101325.001       101325.001       101325.001
        0.000605       101325.009       101325.002       101325.001       101325.001       101325.001
       0.0006075       101325.009       101325.002       101325.001       101325.001       101325.001
         0.00061       101325.009       101325.002       101325.001       101325.001       101325.001
       0.0006125       101325.009       101325.002       101325.001       101325.001       101325.001
        0.000615       101325.009       101325.002       101325.001       101325.001       101325.001
       0.0006175       101325.009       101325.002       101325.001       101325.001       101325.001
         0.00062       101325.009       101325.002       101325.001       101325.001       101325.001
       0.0006225       101325.009       101325.002       101325.001       101325.001       101325.001
        0.000625       101325.009       101325.002       101325.001       101325.001       101325.001
       0.0006275       101325.009       101325.002       101325.001       101325.001       101325.001
         0.00063       101325.009       101325.002       101325.001       101325.001       101325.001
       0.0006325       101325.009       101325.002       101325.001       101325.001       101325.001
        0.000635       101325.009       101325.002       101325.001       101325.001       101325.001
       0.0006375       101325.009       101325.002       101325.001       101325.001       101325.001
         0.00064       101325.009       101325.002       101325.001       101325.001       101325.001
       0.0006425       101325.009       101325.002       101325.001       101325.001       101325.001
        0.000645       101325.009       101325.002       101325.001       101325.001       101325.001
       0.0006475       101325.009       101325.002       101325.001       101325.001       101325.001
         0.00065       101325.009       101325.002       101325.001       101325.001       101325.001
       0.0006525       101325.009       101325.002       101325.001       101325.001       101325.001
        0.000655       101325.009       101325.002       101325.001       101325.001       101325.001
       0.0006575       101325.009       101325.002       101325.001       101325.001       101325.001
         0.00066       101325.009       101325.002       101325.001       101325.001       101325.001
       0.0006625       101325.009       101325.002       101325.001       101325.001       101325.001
        0.000665       101325.009       101325.002       101325.001       101325.001       101325.001
       0.0006675       101325.009       101325.002       101325.001       101325.001       101325.001
         0.00067       101325.009       101325.002       101325.001       101325.001       101325.001
       0.0006725       101325.009       101325.002       101325.001       101325.001       101325.001
        0.000675       101325.009       101325.002       101325.001       101325.001       101325.001
       0.0006775       101325.009       101325.002       101325.001       101325.001       101325.001
         0.00068       101325.009       101325.002       101325.001       101325.001       101325.001
       0.0006825       101325.009       101325.002       101325.001       101325.001       101325.001
        0.000685       101325.009       101325.002       101325.001       101325.001       101325.001
       0.0006875       101325.009       101325.002       101325.001       101325.001       101325.001
         0.00069       101325.009       101325.002       101325.001       101325.001       101325.001
       0.0006925       101325.009       101325.002       101325.001       101325.001       101325.001
        0.000695       101325.009       101325.002       101325.001       101325.001       101325.001
       0.0006975       101325.009       101325.002       101325.001       101325.001       101325.001
          0.0007       101325.009       101325.002       101325.001       101325.001       101325.001
       0.0007025       101325.009       101325.002       101325.001       101325.001       101325.001
        0.000705       101325.009       101325.002       101325.001       101325.001       101325.001
       0.0007075       101325.009       101325.002       101325.001       101325.001       101325.001
         0.00071       101325.009       101325.002       101325.001       101325.001       101325.001
       0.0007125       101325.009       101325.002       101325.001       101325.001       101325.001
        0.000715       101325.009       101325.002       101325.001       101325.001       101325.001
       0.0007175       101325.009       101325.002       101325.001       101325.001       101325.001
         0.00072       101325.009       101325.002       101325.001       101325.001       101325.001
       0.0007225       101325.009       101325.002       101325.001       101325.001       101325.001
        0.000725       101325.009       101325.002       101325.001       101325.001       101325.001
       0.0007275       101325.009       101325.002       101325.001       101325.001       101325.001
         0.00073       101325.009       101325.002       101325.001       101325.001       101325.001