/*--------------------------------*- C++ -*----------------------------------*\
| =========                 |                                                 |
| \\      /  F ield         | OpenFOAM: The Open Source CFD Toolbox           |
|  \\    /   O peration     | Version:  v2012                                 |
|   \\  /    A nd           | Website:  www.openfoam.com                      |
|    \\/     M anipulation  |                                                 |
\*---------------------------------------------------------------------------*/
FoamFile
{
    version     2.0;
    format      ascii;
    class       volScalarField;
    location    "100";
    object      nut;
}
// * * * * * * * * * * * * * * * * * * * * * * * * * * * * * * * * * * * * * //

dimensions      [0 2 -1 0 0 0 0];


internalField   nonuniform List<scalar> 
123200
(
2.7860438e-08
2.7857201e-08
2.7853972e-08
2.785075e-08
2.7847534e-08
2.7844323e-08
2.7841117e-08
2.7837916e-08
2.7834719e-08
2.7831525e-08
2.7828335e-08
2.7825147e-08
2.7821962e-08
2.781878e-08
2.78156e-08
2.7812422e-08
2.7809246e-08
2.7806072e-08
2.7802901e-08
2.7799731e-08
2.7796564e-08
2.7793399e-08
2.7790236e-08
2.7787075e-08
2.7783916e-08
2.778076e-08
2.7777607e-08
2.7774455e-08
2.7771307e-08
2.776816e-08
2.7765016e-08
2.7761874e-08
2.7758735e-08
2.7755597e-08
2.775246e-08
2.7749323e-08
2.7746185e-08
2.7743045e-08
2.77399e-08
2.7736748e-08
2.7733587e-08
2.7730413e-08
2.7727223e-08
2.7724012e-08
2.7720776e-08
2.7717512e-08
2.7714213e-08
2.7710876e-08
2.7707494e-08
2.7704064e-08
2.770058e-08
2.7697036e-08
2.7693428e-08
2.7689751e-08
2.7685999e-08
2.7682168e-08
2.7678254e-08
2.7674251e-08
2.7670156e-08
2.7665964e-08
2.7661671e-08
2.7657274e-08
2.765277e-08
2.7648155e-08
2.7643426e-08
2.7638581e-08
2.7633618e-08
2.7628535e-08
2.762333e-08
2.7618002e-08
2.7612551e-08
2.7606977e-08
2.7601281e-08
2.7595462e-08
2.7589522e-08
2.7583462e-08
2.7577286e-08
2.7570994e-08
2.7564589e-08
2.7558075e-08
2.7551455e-08
2.7544732e-08
2.753791e-08
2.7530994e-08
2.7523987e-08
2.7516893e-08
2.7509719e-08
2.7502468e-08
2.7495145e-08
2.7487757e-08
2.7480307e-08
2.7472801e-08
2.7465245e-08
2.7457644e-08
2.7450004e-08
2.744233e-08
2.7434629e-08
2.7426904e-08
2.7419163e-08
2.7411412e-08
2.7403658e-08
2.7395919e-08
2.7388243e-08
2.7380577e-08
2.7372926e-08
2.7365295e-08
2.7357689e-08
2.7350112e-08
2.7342569e-08
2.7335064e-08
2.7327601e-08
2.7320184e-08
2.7312817e-08
2.7305504e-08
2.7298246e-08
2.7291049e-08
2.7283913e-08
2.7276842e-08
2.726984e-08
2.7262909e-08
2.7860759e-08
2.7858146e-08
2.785552e-08
2.7852883e-08
2.7850233e-08
2.7847571e-08
2.7844899e-08
2.7842217e-08
2.7839525e-08
2.7836826e-08
2.783412e-08
2.7831408e-08
2.7828692e-08
2.7825973e-08
2.7823252e-08
2.7820529e-08
2.7817806e-08
2.7815084e-08
2.7812363e-08
2.7809644e-08
2.7806926e-08
2.780421e-08
2.7801497e-08
2.7798786e-08
2.7796078e-08
2.7793372e-08
2.7790669e-08
2.7787967e-08
2.7785267e-08
2.7782569e-08
2.7779872e-08
2.7777176e-08
2.777448e-08
2.7771785e-08
2.7769088e-08
2.7766391e-08
2.7763691e-08
2.7760987e-08
2.7758278e-08
2.7755561e-08
2.7752836e-08
2.7750098e-08
2.7747344e-08
2.7744573e-08
2.7741779e-08
2.773896e-08
2.7736109e-08
2.7733224e-08
2.77303e-08
2.7727331e-08
2.7724312e-08
2.7721238e-08
2.7718103e-08
2.7714903e-08
2.7711632e-08
2.7708283e-08
2.7704851e-08
2.7701331e-08
2.7697717e-08
2.7694002e-08
2.7690181e-08
2.7686249e-08
2.7682201e-08
2.7678031e-08
2.7673735e-08
2.7669309e-08
2.7664753e-08
2.7660063e-08
2.765524e-08
2.7650285e-08
2.7645199e-08
2.7639984e-08
2.7634643e-08
2.762918e-08
2.7623596e-08
2.7617896e-08
2.7612082e-08
2.7606158e-08
2.7600128e-08
2.7593994e-08
2.758776e-08
2.7581431e-08
2.7575009e-08
2.7568498e-08
2.7561903e-08
2.7555226e-08
2.7548473e-08
2.7541647e-08
2.7534752e-08
2.7527793e-08
2.7520775e-08
2.7513701e-08
2.7506577e-08
2.7499407e-08
2.7492196e-08
2.7484949e-08
2.7477671e-08
2.7470366e-08
2.746304e-08
2.7455699e-08
2.7448349e-08
2.7441007e-08
2.7433712e-08
2.7426421e-08
2.7419139e-08
2.741187e-08
2.7404618e-08
2.7397389e-08
2.7390186e-08
2.7383014e-08
2.7375876e-08
2.7368776e-08
2.7361719e-08
2.7354707e-08
2.7347744e-08
2.7340833e-08
2.7333978e-08
2.7327182e-08
2.7320453e-08
2.731381e-08
2.7861728e-08
2.7860997e-08
2.7860206e-08
2.7859357e-08
2.7858453e-08
2.7857496e-08
2.7856489e-08
2.7855434e-08
2.7854333e-08
2.7853188e-08
2.7852001e-08
2.7850774e-08
2.7849508e-08
2.7848205e-08
2.7846867e-08
2.7845494e-08
2.7844089e-08
2.7842652e-08
2.7841185e-08
2.783969e-08
2.7838166e-08
2.7836616e-08
2.7835039e-08
2.7833438e-08
2.7831813e-08
2.7830165e-08
2.7828495e-08
2.7826803e-08
2.782509e-08
2.7823356e-08
2.7821603e-08
2.7819831e-08
2.781804e-08
2.781623e-08
2.7814402e-08
2.7812556e-08
2.7810692e-08
2.7808808e-08
2.7806905e-08
2.7804981e-08
2.7803035e-08
2.7801065e-08
2.7799068e-08
2.7797042e-08
2.7794983e-08
2.7792887e-08
2.7790749e-08
2.7788566e-08
2.778633e-08
2.7784035e-08
2.7781674e-08
2.777924e-08
2.7776723e-08
2.7774115e-08
2.7771405e-08
2.7768581e-08
2.7765633e-08
2.7762547e-08
2.7759311e-08
2.7755912e-08
2.7752337e-08
2.7748575e-08
2.7744617e-08
2.7740461e-08
2.7736107e-08
2.7731565e-08
2.7726849e-08
2.7721981e-08
2.7716983e-08
2.7711878e-08
2.7706685e-08
2.7701418e-08
2.7696087e-08
2.7690698e-08
2.7685253e-08
2.7679753e-08
2.7674197e-08
2.7668582e-08
2.7662907e-08
2.7657171e-08
2.765137e-08
2.7645504e-08
2.7639572e-08
2.7633573e-08
2.7627507e-08
2.7621374e-08
2.7615175e-08
2.7608912e-08
2.7602587e-08
2.7596201e-08
2.7589759e-08
2.7583263e-08
2.7576717e-08
2.7570126e-08
2.7563493e-08
2.7556823e-08
2.7550121e-08
2.7543392e-08
2.7536642e-08
2.7529876e-08
2.7523101e-08
2.7516333e-08
2.7509609e-08
2.7502893e-08
2.7496189e-08
2.7489501e-08
2.7482835e-08
2.7476195e-08
2.7469586e-08
2.7463012e-08
2.7456479e-08
2.744999e-08
2.7443549e-08
2.7437161e-08
2.743083e-08
2.7424559e-08
2.7418354e-08
2.7412224e-08
2.7406193e-08
2.7400335e-08
2.7861951e-08
2.7861715e-08
2.7861461e-08
2.7861187e-08
2.7860893e-08
2.7860577e-08
2.786024e-08
2.785988e-08
2.7859497e-08
2.785909e-08
2.785866e-08
2.7858206e-08
2.7857728e-08
2.7857225e-08
2.7856699e-08
2.7856148e-08
2.7855573e-08
2.7854974e-08
2.7854351e-08
2.7853705e-08
2.7853034e-08
2.7852341e-08
2.7851624e-08
2.7850885e-08
2.7850123e-08
2.7849338e-08
2.7848532e-08
2.7847704e-08
2.7846854e-08
2.7845983e-08
2.7845091e-08
2.7844179e-08
2.7843246e-08
2.7842293e-08
2.784132e-08
2.7840327e-08
2.7839315e-08
2.7838282e-08
2.783723e-08
2.7836157e-08
2.7835064e-08
2.7833949e-08
2.7832811e-08
2.783165e-08
2.7830465e-08
2.7829253e-08
2.7828014e-08
2.7826744e-08
2.7825441e-08
2.7824104e-08
2.7822728e-08
2.7821311e-08
2.781985e-08
2.7818339e-08
2.7816776e-08
2.7815155e-08
2.7813471e-08
2.7811719e-08
2.7809893e-08
2.7807988e-08
2.7805996e-08
2.7803911e-08
2.7801726e-08
2.7799435e-08
2.7797031e-08
2.7794507e-08
2.7791859e-08
2.7789081e-08
2.7786169e-08
2.7783122e-08
2.7779934e-08
2.7776606e-08
2.7773133e-08
2.7769514e-08
2.7765748e-08
2.7761832e-08
2.7757765e-08
2.7753546e-08
2.7749175e-08
2.7744651e-08
2.7739975e-08
2.7735149e-08
2.7730176e-08
2.7725058e-08
2.7719802e-08
2.7714415e-08
2.7708902e-08
2.7703275e-08
2.7697541e-08
2.7691713e-08
2.7685802e-08
2.7679819e-08
2.7673776e-08
2.7667685e-08
2.7661557e-08
2.7655402e-08
2.7649232e-08
2.7643055e-08
2.7636882e-08
2.7630722e-08
2.7624586e-08
2.7618503e-08
2.7612551e-08
2.7606639e-08
2.7600772e-08
2.7594959e-08
2.7589205e-08
2.7583518e-08
2.7577906e-08
2.7572373e-08
2.7566928e-08
2.7561578e-08
2.7556327e-08
2.7551183e-08
2.754615e-08
2.7541235e-08
2.753645e-08
2.7531777e-08
2.7527537e-08
2.7522638e-08
2.7862065e-08
2.7862064e-08
2.7862059e-08
2.7862045e-08
2.7862021e-08
2.7861988e-08
2.7861945e-08
2.7861893e-08
2.786183e-08
2.7861756e-08
2.786167e-08
2.7861574e-08
2.7861465e-08
2.7861344e-08
2.786121e-08
2.7861063e-08
2.7860904e-08
2.7860731e-08
2.7860544e-08
2.7860343e-08
2.7860129e-08
2.78599e-08
2.7859657e-08
2.78594e-08
2.7859128e-08
2.7858841e-08
2.785854e-08
2.7858224e-08
2.7857893e-08
2.7857548e-08
2.7857188e-08
2.7856812e-08
2.7856422e-08
2.7856017e-08
2.7855598e-08
2.7855163e-08
2.7854713e-08
2.7854248e-08
2.7853767e-08
2.7853271e-08
2.7852759e-08
2.785223e-08
2.7851684e-08
2.7851122e-08
2.785054e-08
2.784994e-08
2.7849321e-08
2.784868e-08
2.7848017e-08
2.7847331e-08
2.784662e-08
2.7845882e-08
2.7845117e-08
2.7844322e-08
2.7843495e-08
2.7842635e-08
2.7841738e-08
2.7840803e-08
2.7839827e-08
2.7838808e-08
2.7837743e-08
2.7836628e-08
2.7835461e-08
2.7834239e-08
2.7832958e-08
2.7831615e-08
2.7830207e-08
2.782873e-08
2.7827182e-08
2.7825558e-08
2.7823856e-08
2.7822074e-08
2.7820207e-08
2.7818253e-08
2.7816211e-08
2.7814076e-08
2.7811848e-08
2.7809523e-08
2.7807101e-08
2.780458e-08
2.7801958e-08
2.7799235e-08
2.779641e-08
2.7793483e-08
2.7790455e-08
2.7787326e-08
2.7784099e-08
2.7780774e-08
2.7777355e-08
2.7773844e-08
2.7770247e-08
2.7766566e-08
2.7762806e-08
2.7758974e-08
2.7755074e-08
2.7751112e-08
2.7747096e-08
2.774303e-08
2.7738923e-08
2.7734782e-08
2.7730616e-08
2.7726443e-08
2.7722311e-08
2.7718172e-08
2.7714032e-08
2.7709897e-08
2.7705773e-08
2.7701665e-08
2.7697579e-08
2.769352e-08
2.7689492e-08
2.76855e-08
2.7681547e-08
2.7677639e-08
2.7673777e-08
2.7669965e-08
2.7666211e-08
2.766251e-08
2.7659019e-08
2.7655323e-08
2.7862147e-08
2.7862314e-08
2.7862476e-08
2.7862633e-08
2.7862785e-08
2.7862932e-08
2.7863072e-08
2.7863207e-08
2.7863336e-08
2.7863459e-08
2.7863575e-08
2.7863684e-08
2.7863787e-08
2.7863883e-08
2.7863971e-08
2.7864053e-08
2.7864126e-08
2.7864192e-08
2.786425e-08
2.78643e-08
2.7864342e-08
2.7864375e-08
2.78644e-08
2.7864415e-08
2.7864422e-08
2.786442e-08
2.786441e-08
2.7864391e-08
2.7864362e-08
2.7864323e-08
2.7864275e-08
2.7864218e-08
2.7864151e-08
2.7864074e-08
2.7863987e-08
2.786389e-08
2.7863783e-08
2.7863665e-08
2.7863537e-08
2.7863398e-08
2.7863248e-08
2.7863086e-08
2.7862913e-08
2.7862727e-08
2.7862529e-08
2.7862317e-08
2.7862091e-08
2.7861851e-08
2.7861595e-08
2.7861323e-08
2.7861034e-08
2.7860726e-08
2.78604e-08
2.7860054e-08
2.7859686e-08
2.7859296e-08
2.7858882e-08
2.7858443e-08
2.7857978e-08
2.7857485e-08
2.7856963e-08
2.7856411e-08
2.7855826e-08
2.7855207e-08
2.7854553e-08
2.7853862e-08
2.7853132e-08
2.7852361e-08
2.7851549e-08
2.7850693e-08
2.7849791e-08
2.7848842e-08
2.7847844e-08
2.7846796e-08
2.7845696e-08
2.7844543e-08
2.7843335e-08
2.7842071e-08
2.784075e-08
2.7839371e-08
2.7837932e-08
2.7836434e-08
2.7834875e-08
2.7833255e-08
2.7831574e-08
2.7829831e-08
2.7828027e-08
2.7826162e-08
2.7824236e-08
2.7822251e-08
2.7820208e-08
2.7818107e-08
2.7815951e-08
2.7813741e-08
2.7811479e-08
2.7809168e-08
2.780681e-08
2.7804407e-08
2.7801964e-08
2.7799482e-08
2.7796967e-08
2.7794428e-08
2.7791887e-08
2.7789323e-08
2.7786738e-08
2.7784136e-08
2.7781519e-08
2.7778891e-08
2.7776255e-08
2.7773614e-08
2.777097e-08
2.7768327e-08
2.7765688e-08
2.7763054e-08
2.7760427e-08
2.7757812e-08
2.7755212e-08
2.775263e-08
2.7750166e-08
2.7747638e-08
2.7862213e-08
2.7862516e-08
2.7862814e-08
2.7863109e-08
2.78634e-08
2.7863686e-08
2.7863969e-08
2.7864247e-08
2.7864521e-08
2.7864791e-08
2.7865056e-08
2.7865317e-08
2.7865573e-08
2.7865824e-08
2.786607e-08
2.7866311e-08
2.7866547e-08
2.7866777e-08
2.7867003e-08
2.7867222e-08
2.7867437e-08
2.7867646e-08
2.7867849e-08
2.7868046e-08
2.7868237e-08
2.7868423e-08
2.7868602e-08
2.7868776e-08
2.7868943e-08
2.7869104e-08
2.7869258e-08
2.7869406e-08
2.7869548e-08
2.7869683e-08
2.7869811e-08
2.7869932e-08
2.7870047e-08
2.7870154e-08
2.7870254e-08
2.7870346e-08
2.787043e-08
2.7870507e-08
2.7870574e-08
2.7870634e-08
2.7870684e-08
2.7870724e-08
2.7870755e-08
2.7870774e-08
2.7870782e-08
2.7870778e-08
2.7870765e-08
2.7870737e-08
2.7870695e-08
2.7870638e-08
2.7870566e-08
2.7870478e-08
2.7870373e-08
2.7870251e-08
2.7870109e-08
2.7869948e-08
2.7869766e-08
2.7869563e-08
2.7869338e-08
2.7869088e-08
2.7868815e-08
2.7868516e-08
2.7868191e-08
2.7867838e-08
2.7867457e-08
2.7867047e-08
2.7866607e-08
2.7866135e-08
2.7865631e-08
2.7865094e-08
2.7864524e-08
2.7863919e-08
2.7863278e-08
2.7862602e-08
2.7861889e-08
2.7861139e-08
2.7860351e-08
2.7859526e-08
2.7858661e-08
2.7857759e-08
2.7856817e-08
2.7855837e-08
2.7854817e-08
2.785376e-08
2.7852663e-08
2.7851529e-08
2.7850358e-08
2.7849149e-08
2.7847904e-08
2.7846624e-08
2.7845309e-08
2.7843961e-08
2.7842581e-08
2.7841171e-08
2.783973e-08
2.7838262e-08
2.7836769e-08
2.7835255e-08
2.7833736e-08
2.7832196e-08
2.7830637e-08
2.7829061e-08
2.7827468e-08
2.7825862e-08
2.7824243e-08
2.7822614e-08
2.7820975e-08
2.7819329e-08
2.7817677e-08
2.781602e-08
2.781436e-08
2.7812699e-08
2.781104e-08
2.7809387e-08
2.7807813e-08
2.7806184e-08
2.7862272e-08
2.7862691e-08
2.7863108e-08
2.7863521e-08
2.7863932e-08
2.7864339e-08
2.7864743e-08
2.7865144e-08
2.7865541e-08
2.7865935e-08
2.7866325e-08
2.7866712e-08
2.7867095e-08
2.7867474e-08
2.7867849e-08
2.7868221e-08
2.7868588e-08
2.7868952e-08
2.7869311e-08
2.7869666e-08
2.7870017e-08
2.7870364e-08
2.7870707e-08
2.7871045e-08
2.7871378e-08
2.7871707e-08
2.7872032e-08
2.7872352e-08
2.7872668e-08
2.7872978e-08
2.7873284e-08
2.7873586e-08
2.7873882e-08
2.7874174e-08
2.787446e-08
2.7874741e-08
2.7875017e-08
2.7875288e-08
2.7875553e-08
2.7875812e-08
2.7876066e-08
2.7876313e-08
2.7876554e-08
2.7876789e-08
2.7877016e-08
2.7877236e-08
2.7877448e-08
2.7877652e-08
2.7877848e-08
2.7878034e-08
2.7878211e-08
2.7878378e-08
2.7878535e-08
2.787868e-08
2.7878814e-08
2.7878935e-08
2.7879044e-08
2.7879138e-08
2.7879218e-08
2.7879284e-08
2.7879333e-08
2.7879366e-08
2.7879381e-08
2.7879377e-08
2.787936e-08
2.7879322e-08
2.7879263e-08
2.7879183e-08
2.7879082e-08
2.7878959e-08
2.7878814e-08
2.7878645e-08
2.7878453e-08
2.7878237e-08
2.7877996e-08
2.787773e-08
2.7877438e-08
2.787712e-08
2.7876776e-08
2.7876405e-08
2.7876007e-08
2.7875582e-08
2.787513e-08
2.787465e-08
2.7874143e-08
2.7873609e-08
2.7873048e-08
2.7872459e-08
2.7871844e-08
2.7871202e-08
2.7870534e-08
2.7869841e-08
2.7869122e-08
2.7868379e-08
2.7867612e-08
2.7866822e-08
2.7866009e-08
2.7865175e-08
2.786432e-08
2.7863446e-08
2.7862554e-08
2.7861648e-08
2.7860738e-08
2.7859814e-08
2.7858875e-08
2.7857924e-08
2.785696e-08
2.7855986e-08
2.7855003e-08
2.785401e-08
2.785301e-08
2.7852004e-08
2.7850992e-08
2.7849976e-08
2.7848956e-08
2.7847934e-08
2.7846913e-08
2.7845895e-08
2.7844941e-08
2.7843919e-08
2.7862325e-08
2.786285e-08
2.7863374e-08
2.7863895e-08
2.7864413e-08
2.7864929e-08
2.7865442e-08
2.7865952e-08
2.786646e-08
2.7866965e-08
2.7867467e-08
2.7867966e-08
2.7868462e-08
2.7868954e-08
2.7869444e-08
2.786993e-08
2.7870413e-08
2.7870893e-08
2.787137e-08
2.7871843e-08
2.7872312e-08
2.7872778e-08
2.7873241e-08
2.78737e-08
2.7874155e-08
2.7874607e-08
2.7875055e-08
2.7875499e-08
2.787594e-08
2.7876376e-08
2.7876809e-08
2.7877238e-08
2.7877663e-08
2.7878084e-08
2.7878501e-08
2.7878914e-08
2.7879322e-08
2.7879726e-08
2.7880125e-08
2.788052e-08
2.7880909e-08
2.7881294e-08
2.7881674e-08
2.7882047e-08
2.7882415e-08
2.7882777e-08
2.7883133e-08
2.7883482e-08
2.7883824e-08
2.7884158e-08
2.7884485e-08
2.7884803e-08
2.7885112e-08
2.7885413e-08
2.7885704e-08
2.7885984e-08
2.7886254e-08
2.7886513e-08
2.7886759e-08
2.7886994e-08
2.7887216e-08
2.7887424e-08
2.7887619e-08
2.7887799e-08
2.7887964e-08
2.7888113e-08
2.7888247e-08
2.7888363e-08
2.7888463e-08
2.7888545e-08
2.7888609e-08
2.7888654e-08
2.7888679e-08
2.7888683e-08
2.7888672e-08
2.7888641e-08
2.7888588e-08
2.7888513e-08
2.7888418e-08
2.7888301e-08
2.7888163e-08
2.7888004e-08
2.7887823e-08
2.7887621e-08
2.7887397e-08
2.7887152e-08
2.7886885e-08
2.7886597e-08
2.7886289e-08
2.788596e-08
2.7885611e-08
2.7885241e-08
2.7884853e-08
2.7884445e-08
2.7884019e-08
2.7883575e-08
2.7883114e-08
2.7882636e-08
2.7882143e-08
2.7881634e-08
2.7881112e-08
2.788058e-08
2.7880046e-08
2.78795e-08
2.7878944e-08
2.7878378e-08
2.7877804e-08
2.7877221e-08
2.7876631e-08
2.7876034e-08
2.7875433e-08
2.7874826e-08
2.7874216e-08
2.7873603e-08
2.7872987e-08
2.7872371e-08
2.7871756e-08
2.7871145e-08
2.7870591e-08
2.7869955e-08
2.7862374e-08
2.7862998e-08
2.7863621e-08
2.7864241e-08
2.786486e-08
2.7865476e-08
2.786609e-08
2.7866702e-08
2.7867312e-08
2.7867919e-08
2.7868524e-08
2.7869126e-08
2.7869726e-08
2.7870323e-08
2.7870917e-08
2.7871509e-08
2.7872098e-08
2.7872685e-08
2.7873268e-08
2.7873848e-08
2.7874426e-08
2.7875e-08
2.7875572e-08
2.7876141e-08
2.7876706e-08
2.7877268e-08
2.7877828e-08
2.7878384e-08
2.7878936e-08
2.7879486e-08
2.7880032e-08
2.7880575e-08
2.7881114e-08
2.788165e-08
2.7882182e-08
2.7882711e-08
2.7883236e-08
2.7883757e-08
2.7884274e-08
2.7884787e-08
2.7885295e-08
2.78858e-08
2.7886299e-08
2.7886794e-08
2.7887283e-08
2.7887767e-08
2.7888245e-08
2.7888718e-08
2.7889184e-08
2.7889644e-08
2.7890097e-08
2.7890542e-08
2.789098e-08
2.789141e-08
2.7891832e-08
2.7892244e-08
2.7892647e-08
2.7893041e-08
2.7893424e-08
2.7893797e-08
2.7894159e-08
2.7894509e-08
2.7894847e-08
2.7895172e-08
2.7895485e-08
2.7895784e-08
2.7896069e-08
2.789634e-08
2.7896597e-08
2.7896838e-08
2.7897063e-08
2.7897273e-08
2.7897466e-08
2.7897643e-08
2.7897803e-08
2.7897945e-08
2.7898071e-08
2.7898178e-08
2.7898267e-08
2.7898339e-08
2.7898392e-08
2.7898427e-08
2.7898442e-08
2.7898438e-08
2.7898421e-08
2.7898383e-08
2.7898327e-08
2.7898252e-08
2.789816e-08
2.789805e-08
2.7897922e-08
2.7897778e-08
2.7897617e-08
2.789744e-08
2.7897247e-08
2.7897038e-08
2.7896815e-08
2.7896578e-08
2.7896327e-08
2.7896064e-08
2.7895788e-08
2.7895504e-08
2.7895219e-08
2.7894924e-08
2.789462e-08
2.7894307e-08
2.7893987e-08
2.7893659e-08
2.7893326e-08
2.7892987e-08
2.7892644e-08
2.7892296e-08
2.7891946e-08
2.7891593e-08
2.7891239e-08
2.7890884e-08
2.7890531e-08
2.7890181e-08
2.7889887e-08
2.7889496e-08
2.786242e-08
2.7863138e-08
2.7863854e-08
2.7864569e-08
2.7865282e-08
2.7865993e-08
2.7866702e-08
2.786741e-08
2.7868115e-08
2.7868819e-08
2.7869521e-08
2.787022e-08
2.7870918e-08
2.7871613e-08
2.7872306e-08
2.7872997e-08
2.7873685e-08
2.7874371e-08
2.7875055e-08
2.7875736e-08
2.7876415e-08
2.7877091e-08
2.7877764e-08
2.7878435e-08
2.7879103e-08
2.7879768e-08
2.7880431e-08
2.7881091e-08
2.7881748e-08
2.7882402e-08
2.7883053e-08
2.7883701e-08
2.7884346e-08
2.7884988e-08
2.7885627e-08
2.7886263e-08
2.7886895e-08
2.7887523e-08
2.7888148e-08
2.7888769e-08
2.7889387e-08
2.789e-08
2.7890608e-08
2.7891213e-08
2.7891812e-08
2.7892407e-08
2.7892996e-08
2.789358e-08
2.7894158e-08
2.789473e-08
2.7895296e-08
2.7895855e-08
2.7896407e-08
2.7896952e-08
2.7897489e-08
2.7898018e-08
2.7898539e-08
2.789905e-08
2.7899553e-08
2.7900045e-08
2.7900528e-08
2.7901e-08
2.7901462e-08
2.7901912e-08
2.790235e-08
2.7902776e-08
2.790319e-08
2.7903591e-08
2.7903979e-08
2.7904353e-08
2.7904713e-08
2.7905058e-08
2.7905389e-08
2.7905705e-08
2.7906006e-08
2.7906291e-08
2.7906561e-08
2.7906815e-08
2.7907052e-08
2.7907273e-08
2.7907478e-08
2.7907666e-08
2.7907838e-08
2.7907993e-08
2.7908132e-08
2.7908253e-08
2.7908359e-08
2.7908448e-08
2.7908521e-08
2.7908578e-08
2.7908618e-08
2.7908643e-08
2.7908652e-08
2.7908647e-08
2.7908629e-08
2.7908596e-08
2.7908548e-08
2.7908487e-08
2.7908413e-08
2.7908327e-08
2.790823e-08
2.7908125e-08
2.7908018e-08
2.7907901e-08
2.7907776e-08
2.7907643e-08
2.7907501e-08
2.7907353e-08
2.7907199e-08
2.7907039e-08
2.7906874e-08
2.7906705e-08
2.7906533e-08
2.7906358e-08
2.7906181e-08
2.7906004e-08
2.7905827e-08
2.7905653e-08
2.7905532e-08
2.7905302e-08
2.7862465e-08
2.7863272e-08
2.7864077e-08
2.7864882e-08
2.7865685e-08
2.7866487e-08
2.7867287e-08
2.7868086e-08
2.7868884e-08
2.7869679e-08
2.7870473e-08
2.7871266e-08
2.7872057e-08
2.7872845e-08
2.7873632e-08
2.7874417e-08
2.78752e-08
2.7875981e-08
2.787676e-08
2.7877537e-08
2.7878312e-08
2.7879084e-08
2.7879854e-08
2.7880622e-08
2.7881388e-08
2.7882151e-08
2.7882912e-08
2.788367e-08
2.7884426e-08
2.7885179e-08
2.7885929e-08
2.7886677e-08
2.7887422e-08
2.7888165e-08
2.7888904e-08
2.788964e-08
2.7890373e-08
2.7891103e-08
2.7891829e-08
2.7892552e-08
2.7893271e-08
2.7893986e-08
2.7894697e-08
2.7895404e-08
2.7896107e-08
2.7896804e-08
2.7897497e-08
2.7898185e-08
2.7898867e-08
2.7899543e-08
2.7900214e-08
2.7900878e-08
2.7901535e-08
2.7902186e-08
2.7902829e-08
2.7903464e-08
2.7904092e-08
2.7904711e-08
2.7905322e-08
2.7905923e-08
2.7906515e-08
2.7907098e-08
2.790767e-08
2.7908231e-08
2.7908782e-08
2.7909321e-08
2.7909849e-08
2.7910364e-08
2.7910867e-08
2.7911358e-08
2.7911835e-08
2.7912299e-08
2.791275e-08
2.7913186e-08
2.7913608e-08
2.7914016e-08
2.7914409e-08
2.7914787e-08
2.791515e-08
2.7915497e-08
2.791583e-08
2.7916146e-08
2.7916447e-08
2.7916733e-08
2.7917002e-08
2.7917256e-08
2.7917495e-08
2.7917717e-08
2.7917925e-08
2.7918116e-08
2.7918293e-08
2.7918455e-08
2.7918601e-08
2.7918733e-08
2.7918851e-08
2.7918955e-08
2.7919045e-08
2.7919123e-08
2.7919187e-08
2.7919239e-08
2.791928e-08
2.7919312e-08
2.7919341e-08
2.7919361e-08
2.7919371e-08
2.7919372e-08
2.7919366e-08
2.7919352e-08
2.7919331e-08
2.7919303e-08
2.791927e-08
2.7919231e-08
2.7919188e-08
2.7919141e-08
2.7919092e-08
2.791904e-08
2.7918987e-08
2.7918933e-08
2.7918918e-08
2.7918822e-08
2.7862507e-08
2.78634e-08
2.7864293e-08
2.7865184e-08
2.7866074e-08
2.7866963e-08
2.7867851e-08
2.7868738e-08
2.7869624e-08
2.7870508e-08
2.7871392e-08
2.7872273e-08
2.7873154e-08
2.7874033e-08
2.787491e-08
2.7875786e-08
2.787666e-08
2.7877532e-08
2.7878403e-08
2.7879271e-08
2.7880138e-08
2.7881004e-08
2.7881867e-08
2.7882728e-08
2.7883587e-08
2.7884444e-08
2.7885299e-08
2.7886152e-08
2.7887002e-08
2.788785e-08
2.7888696e-08
2.788954e-08
2.789038e-08
2.7891218e-08
2.7892054e-08
2.7892886e-08
2.7893716e-08
2.7894542e-08
2.7895366e-08
2.7896185e-08
2.7897002e-08
2.7897814e-08
2.7898623e-08
2.7899427e-08
2.7900228e-08
2.7901023e-08
2.7901814e-08
2.79026e-08
2.7903381e-08
2.7904156e-08
2.7904925e-08
2.7905688e-08
2.7906445e-08
2.7907195e-08
2.7907938e-08
2.7908673e-08
2.7909401e-08
2.7910121e-08
2.7910832e-08
2.7911535e-08
2.7912228e-08
2.7912912e-08
2.7913587e-08
2.7914251e-08
2.7914905e-08
2.7915547e-08
2.7916179e-08
2.7916799e-08
2.7917407e-08
2.7918003e-08
2.7918587e-08
2.7919157e-08
2.7919715e-08
2.7920259e-08
2.7920789e-08
2.7921306e-08
2.7921808e-08
2.7922296e-08
2.7922769e-08
2.7923228e-08
2.7923671e-08
2.79241e-08
2.7924513e-08
2.7924911e-08
2.7925294e-08
2.7925661e-08
2.7926013e-08
2.792635e-08
2.7926671e-08
2.7926977e-08
2.7927268e-08
2.7927544e-08
2.7927806e-08
2.7928052e-08
2.7928284e-08
2.7928502e-08
2.7928706e-08
2.7928896e-08
2.7929073e-08
2.7929237e-08
2.792939e-08
2.7929532e-08
2.7929671e-08
2.79298e-08
2.7929918e-08
2.7930027e-08
2.7930126e-08
2.7930216e-08
2.7930298e-08
2.7930373e-08
2.793044e-08
2.7930501e-08
2.7930556e-08
2.7930606e-08
2.7930651e-08
2.7930692e-08
2.7930732e-08
2.7930771e-08
2.7930854e-08
2.7930817e-08
2.7862549e-08
2.7863525e-08
2.7864501e-08
2.7865477e-08
2.7866451e-08
2.7867425e-08
2.7868398e-08
2.786937e-08
2.7870342e-08
2.7871312e-08
2.7872282e-08
2.787325e-08
2.7874217e-08
2.7875183e-08
2.7876148e-08
2.7877112e-08
2.7878074e-08
2.7879035e-08
2.7879994e-08
2.7880952e-08
2.7881909e-08
2.7882864e-08
2.7883817e-08
2.7884768e-08
2.7885718e-08
2.7886666e-08
2.7887612e-08
2.7888556e-08
2.7889498e-08
2.7890438e-08
2.7891376e-08
2.7892311e-08
2.7893245e-08
2.7894175e-08
2.7895103e-08
2.7896029e-08
2.7896952e-08
2.7897871e-08
2.7898788e-08
2.7899701e-08
2.7900611e-08
2.7901518e-08
2.790242e-08
2.7903319e-08
2.7904213e-08
2.7905103e-08
2.7905988e-08
2.7906868e-08
2.7907743e-08
2.7908613e-08
2.7909476e-08
2.7910334e-08
2.7911186e-08
2.791203e-08
2.7912868e-08
2.7913699e-08
2.7914522e-08
2.7915337e-08
2.7916144e-08
2.7916942e-08
2.7917731e-08
2.7918512e-08
2.7919282e-08
2.7920043e-08
2.7920793e-08
2.7921532e-08
2.7922261e-08
2.7922978e-08
2.7923684e-08
2.7924377e-08
2.7925059e-08
2.7925727e-08
2.7926383e-08
2.7927026e-08
2.7927655e-08
2.792827e-08
2.7928872e-08
2.7929459e-08
2.7930032e-08
2.793059e-08
2.7931134e-08
2.7931662e-08
2.7932176e-08
2.7932674e-08
2.7933157e-08
2.7933624e-08
2.7934076e-08
2.7934513e-08
2.7934934e-08
2.793534e-08
2.7935731e-08
2.7936106e-08
2.7936465e-08
2.793681e-08
2.793714e-08
2.7937455e-08
2.7937755e-08
2.7938041e-08
2.7938313e-08
2.7938571e-08
2.7938816e-08
2.7939051e-08
2.7939281e-08
2.7939499e-08
2.7939706e-08
2.7939901e-08
2.7940086e-08
2.794026e-08
2.7940425e-08
2.794058e-08
2.7940727e-08
2.7940865e-08
2.7940996e-08
2.794112e-08
2.7941237e-08
2.7941349e-08
2.7941457e-08
2.7941563e-08
2.7941721e-08
2.7941717e-08
2.7862589e-08
2.7863647e-08
2.7864704e-08
2.7865761e-08
2.7866818e-08
2.7867874e-08
2.786893e-08
2.7869985e-08
2.787104e-08
2.7872094e-08
2.7873148e-08
2.78742e-08
2.7875252e-08
2.7876303e-08
2.7877353e-08
2.7878402e-08
2.7879451e-08
2.7880498e-08
2.7881543e-08
2.7882588e-08
2.7883631e-08
2.7884674e-08
2.7885714e-08
2.7886754e-08
2.7887791e-08
2.7888828e-08
2.7889862e-08
2.7890895e-08
2.7891926e-08
2.7892955e-08
2.7893983e-08
2.7895008e-08
2.7896031e-08
2.7897052e-08
2.789807e-08
2.7899086e-08
2.7900099e-08
2.7901109e-08
2.7902117e-08
2.7903121e-08
2.7904122e-08
2.7905119e-08
2.7906112e-08
2.7907102e-08
2.7908087e-08
2.7909068e-08
2.7910044e-08
2.7911016e-08
2.7911982e-08
2.7912943e-08
2.7913898e-08
2.7914847e-08
2.7915789e-08
2.7916725e-08
2.7917655e-08
2.7918576e-08
2.7919491e-08
2.7920397e-08
2.7921295e-08
2.7922185e-08
2.7923066e-08
2.7923937e-08
2.7924799e-08
2.7925651e-08
2.7926492e-08
2.7927323e-08
2.7928143e-08
2.7928952e-08
2.7929749e-08
2.7930534e-08
2.7931307e-08
2.7932067e-08
2.7932815e-08
2.7933549e-08
2.793427e-08
2.7934977e-08
2.793567e-08
2.7936348e-08
2.7937013e-08
2.7937662e-08
2.7938297e-08
2.7938916e-08
2.7939521e-08
2.7940109e-08
2.7940683e-08
2.794124e-08
2.7941782e-08
2.7942308e-08
2.7942818e-08
2.7943313e-08
2.7943791e-08
2.7944253e-08
2.79447e-08
2.7945131e-08
2.7945546e-08
2.7945945e-08
2.7946329e-08
2.7946697e-08
2.794705e-08
2.7947388e-08
2.7947712e-08
2.7948024e-08
2.7948331e-08
2.7948624e-08
2.7948904e-08
2.7949171e-08
2.7949426e-08
2.7949669e-08
2.79499e-08
2.795012e-08
2.795033e-08
2.7950529e-08
2.7950718e-08
2.7950898e-08
2.795107e-08
2.7951234e-08
2.7951392e-08
2.7951546e-08
2.7951753e-08
2.7951769e-08
2.7862629e-08
2.7863766e-08
2.7864902e-08
2.7866039e-08
2.7867176e-08
2.7868313e-08
2.7869449e-08
2.7870585e-08
2.7871721e-08
2.7872857e-08
2.7873992e-08
2.7875127e-08
2.7876262e-08
2.7877395e-08
2.7878529e-08
2.7879661e-08
2.7880793e-08
2.7881924e-08
2.7883054e-08
2.7884184e-08
2.7885312e-08
2.7886439e-08
2.7887566e-08
2.7888691e-08
2.7889814e-08
2.7890937e-08
2.7892058e-08
2.7893178e-08
2.7894296e-08
2.7895412e-08
2.7896526e-08
2.7897639e-08
2.789875e-08
2.7899858e-08
2.7900965e-08
2.7902069e-08
2.790317e-08
2.7904268e-08
2.7905364e-08
2.7906457e-08
2.7907546e-08
2.7908632e-08
2.7909714e-08
2.7910792e-08
2.7911866e-08
2.7912935e-08
2.7914e-08
2.791506e-08
2.7916115e-08
2.7917164e-08
2.7918208e-08
2.7919245e-08
2.7920276e-08
2.7921301e-08
2.7922318e-08
2.7923328e-08
2.792433e-08
2.7925325e-08
2.7926311e-08
2.7927288e-08
2.7928256e-08
2.7929215e-08
2.7930165e-08
2.7931104e-08
2.7932033e-08
2.7932951e-08
2.7933858e-08
2.7934754e-08
2.7935637e-08
2.7936509e-08
2.7937368e-08
2.7938215e-08
2.7939048e-08
2.7939868e-08
2.7940675e-08
2.7941467e-08
2.7942245e-08
2.7943009e-08
2.7943758e-08
2.7944492e-08
2.7945211e-08
2.7945914e-08
2.7946601e-08
2.7947273e-08
2.7947929e-08
2.7948568e-08
2.7949191e-08
2.7949798e-08
2.7950388e-08
2.7950962e-08
2.7951519e-08
2.7952059e-08
2.7952583e-08
2.7953089e-08
2.7953579e-08
2.7954052e-08
2.7954509e-08
2.7954949e-08
2.7955372e-08
2.7955779e-08
2.7956171e-08
2.7956549e-08
2.795692e-08
2.7957276e-08
2.7957617e-08
2.7957943e-08
2.7958256e-08
2.7958554e-08
2.7958839e-08
2.795911e-08
2.7959368e-08
2.7959614e-08
2.7959848e-08
2.7960071e-08
2.7960282e-08
2.7960483e-08
2.7960676e-08
2.7960861e-08
2.79611e-08
2.796112e-08
2.7862667e-08
2.7863881e-08
2.7865096e-08
2.786631e-08
2.7867525e-08
2.786874e-08
2.7869955e-08
2.7871171e-08
2.7872386e-08
2.7873602e-08
2.7874817e-08
2.7876032e-08
2.7877247e-08
2.7878462e-08
2.7879677e-08
2.7880891e-08
2.7882105e-08
2.7883318e-08
2.788453e-08
2.7885743e-08
2.7886954e-08
2.7888165e-08
2.7889374e-08
2.7890583e-08
2.7891791e-08
2.7892998e-08
2.7894204e-08
2.7895408e-08
2.7896611e-08
2.7897813e-08
2.7899013e-08
2.7900211e-08
2.7901407e-08
2.7902602e-08
2.7903794e-08
2.7904984e-08
2.7906172e-08
2.7907356e-08
2.7908538e-08
2.7909717e-08
2.7910893e-08
2.7912065e-08
2.7913234e-08
2.7914399e-08
2.7915559e-08
2.7916715e-08
2.7917866e-08
2.7919013e-08
2.7920154e-08
2.7921289e-08
2.7922419e-08
2.7923542e-08
2.7924659e-08
2.7925769e-08
2.7926872e-08
2.7927967e-08
2.7929055e-08
2.7930134e-08
2.7931205e-08
2.7932267e-08
2.793332e-08
2.7934364e-08
2.7935397e-08
2.793642e-08
2.7937433e-08
2.7938434e-08
2.7939424e-08
2.7940403e-08
2.7941369e-08
2.7942323e-08
2.7943264e-08
2.7944192e-08
2.7945107e-08
2.7946008e-08
2.7946895e-08
2.7947768e-08
2.7948626e-08
2.7949469e-08
2.7950297e-08
2.7951109e-08
2.7951906e-08
2.7952686e-08
2.7953451e-08
2.7954198e-08
2.795493e-08
2.7955644e-08
2.7956341e-08
2.7957021e-08
2.7957684e-08
2.7958329e-08
2.7958957e-08
2.7959567e-08
2.7960159e-08
2.7960733e-08
2.7961289e-08
2.7961827e-08
2.7962347e-08
2.7962849e-08
2.7963333e-08
2.79638e-08
2.7964249e-08
2.7964683e-08
2.7965107e-08
2.7965516e-08
2.7965907e-08
2.7966282e-08
2.7966641e-08
2.7966983e-08
2.7967309e-08
2.796762e-08
2.7967916e-08
2.7968196e-08
2.7968462e-08
2.7968714e-08
2.7968951e-08
2.7969176e-08
2.7969389e-08
2.7969592e-08
2.7969849e-08
2.7969853e-08
2.7862705e-08
2.7863994e-08
2.7865284e-08
2.7866575e-08
2.7867866e-08
2.7869158e-08
2.787045e-08
2.7871742e-08
2.7873035e-08
2.7874329e-08
2.7875622e-08
2.7876916e-08
2.787821e-08
2.7879504e-08
2.7880798e-08
2.7882092e-08
2.7883386e-08
2.788468e-08
2.7885973e-08
2.7887266e-08
2.7888559e-08
2.7889851e-08
2.7891143e-08
2.7892434e-08
2.7893724e-08
2.7895014e-08
2.7896302e-08
2.789759e-08
2.7898876e-08
2.7900161e-08
2.7901445e-08
2.7902727e-08
2.7904007e-08
2.7905286e-08
2.7906562e-08
2.7907837e-08
2.7909108e-08
2.7910378e-08
2.7911644e-08
2.7912908e-08
2.7914168e-08
2.7915425e-08
2.7916678e-08
2.7917928e-08
2.7919173e-08
2.7920413e-08
2.7921649e-08
2.7922879e-08
2.7924104e-08
2.7925324e-08
2.7926537e-08
2.7927744e-08
2.7928945e-08
2.7930138e-08
2.7931324e-08
2.7932503e-08
2.7933673e-08