/*--------------------------------*- C++ -*----------------------------------*\
| =========                 |                                                 |
| \\      /  F ield         | OpenFOAM: The Open Source CFD Toolbox           |
|  \\    /   O peration     | Version:  v2012                                 |
|   \\  /    A nd           | Website:  www.openfoam.com                      |
|    \\/     M anipulation  |                                                 |
\*---------------------------------------------------------------------------*/
FoamFile
{
    version     2.0;
    format      ascii;
    class       volScalarField;
    location    "100";
    object      nuTilda;
}
// * * * * * * * * * * * * * * * * * * * * * * * * * * * * * * * * * * * * * //

dimensions      [0 2 -1 0 0 0 0];


internalField   nonuniform List<scalar> 
123200
(
9.9998541e-06
9.9995631e-06
9.9992727e-06
9.9989828e-06
9.9986935e-06
9.9984047e-06
9.9981163e-06
9.9978283e-06
9.9975407e-06
9.9972533e-06
9.9969662e-06
9.9966793e-06
9.9963926e-06
9.9961061e-06
9.9958198e-06
9.9955337e-06
9.9952478e-06
9.994962e-06
9.9946764e-06
9.9943909e-06
9.9941056e-06
9.9938205e-06
9.9935356e-06
9.9932508e-06
9.9929662e-06
9.9926818e-06
9.9923976e-06
9.9921136e-06
9.9918298e-06
9.9915462e-06
9.9912628e-06
9.9909796e-06
9.9906965e-06
9.9904135e-06
9.9901306e-06
9.9898478e-06
9.9895648e-06
9.9892815e-06
9.9889978e-06
9.9887135e-06
9.9884283e-06
9.9881419e-06
9.987854e-06
9.9875642e-06
9.9872722e-06
9.9869775e-06
9.9866797e-06
9.9863785e-06
9.9860732e-06
9.9857634e-06
9.9854488e-06
9.9851288e-06
9.9848029e-06
9.9844707e-06
9.9841318e-06
9.9837857e-06
9.983432e-06
9.9830703e-06
9.9827001e-06
9.9823212e-06
9.9819332e-06
9.9815357e-06
9.9811284e-06
9.9807111e-06
9.9802834e-06
9.9798452e-06
9.9793962e-06
9.9789362e-06
9.9784652e-06
9.9779831e-06
9.9774897e-06
9.9769851e-06
9.9764693e-06
9.9759423e-06
9.9754044e-06
9.9748555e-06
9.9742958e-06
9.9737257e-06
9.9731452e-06
9.9725547e-06
9.9719545e-06
9.9713449e-06
9.9707262e-06
9.9700987e-06
9.969463e-06
9.9688193e-06
9.968168e-06
9.9675098e-06
9.9668449e-06
9.9661738e-06
9.9654971e-06
9.9648151e-06
9.9641285e-06
9.9634376e-06
9.962743e-06
9.9620452e-06
9.9613447e-06
9.960642e-06
9.9599377e-06
9.9592322e-06
9.9585264e-06
9.9578218e-06
9.9571227e-06
9.9564245e-06
9.9557274e-06
9.9550321e-06
9.9543388e-06
9.9536481e-06
9.9529603e-06
9.9522758e-06
9.9515951e-06
9.9509184e-06
9.9502461e-06
9.9495786e-06
9.9489161e-06
9.9482589e-06
9.9476072e-06
9.9469613e-06
9.9463215e-06
9.9456881e-06
9.999883e-06
9.999648e-06
9.9994119e-06
9.9991747e-06
9.9989363e-06
9.998697e-06
9.9984566e-06
9.9982153e-06
9.9979731e-06
9.9977302e-06
9.9974867e-06
9.9972427e-06
9.9969983e-06
9.9967536e-06
9.9965086e-06
9.9962636e-06
9.9960185e-06
9.9957734e-06
9.9955284e-06
9.9952836e-06
9.9950389e-06
9.9947943e-06
9.99455e-06
9.9943058e-06
9.9940619e-06
9.9938181e-06
9.9935746e-06
9.9933312e-06
9.9930879e-06
9.9928448e-06
9.9926018e-06
9.9923588e-06
9.9921159e-06
9.9918729e-06
9.9916299e-06
9.9913867e-06
9.9911433e-06
9.9908996e-06
9.9906553e-06
9.9904103e-06
9.9901645e-06
9.9899176e-06
9.9896693e-06
9.9894193e-06
9.9891673e-06
9.988913e-06
9.9886558e-06
9.9883955e-06
9.9881316e-06
9.9878637e-06
9.9875913e-06
9.9873138e-06
9.9870309e-06
9.986742e-06
9.9864467e-06
9.9861444e-06
9.9858345e-06
9.9855166e-06
9.9851902e-06
9.9848547e-06
9.9845096e-06
9.9841544e-06
9.9837886e-06
9.9834118e-06
9.9830236e-06
9.9826236e-06
9.9822117e-06
9.9817878e-06
9.9813517e-06
9.9809037e-06
9.9804437e-06
9.9799721e-06
9.9794889e-06
9.9789946e-06
9.9784894e-06
9.9779735e-06
9.9774472e-06
9.9769109e-06
9.9763649e-06
9.9758094e-06
9.9752448e-06
9.9746714e-06
9.9740895e-06
9.9734995e-06
9.9729017e-06
9.9722964e-06
9.9716841e-06
9.971065e-06
9.9704397e-06
9.9698083e-06
9.9691715e-06
9.9685295e-06
9.9678828e-06
9.9672318e-06
9.966577e-06
9.9659188e-06
9.9652576e-06
9.9645938e-06
9.9639281e-06
9.9632607e-06
9.9625925e-06
9.9619248e-06
9.9612613e-06
9.960598e-06
9.9599354e-06
9.9592739e-06
9.9586138e-06
9.9579556e-06
9.9572997e-06
9.9566464e-06
9.9559962e-06
9.9553493e-06
9.9547061e-06
9.954067e-06
9.9534322e-06
9.952802e-06
9.9521768e-06
9.9515569e-06
9.9509429e-06
9.9503368e-06
9.9999701e-06
9.9999044e-06
9.9998333e-06
9.9997569e-06
9.9996756e-06
9.9995895e-06
9.999499e-06
9.9994041e-06
9.9993051e-06
9.9992021e-06
9.9990954e-06
9.998985e-06
9.9988711e-06
9.998754e-06
9.9986336e-06
9.9985101e-06
9.9983837e-06
9.9982544e-06
9.9981225e-06
9.9979879e-06
9.9978508e-06
9.9977113e-06
9.9975695e-06
9.9974254e-06
9.9972792e-06
9.9971309e-06
9.9969806e-06
9.9968283e-06
9.9966741e-06
9.9965181e-06
9.9963603e-06
9.9962008e-06
9.9960395e-06
9.9958766e-06
9.9957121e-06
9.9955458e-06
9.995378e-06
9.9952084e-06
9.995037e-06
9.9948637e-06
9.9946885e-06
9.994511e-06
9.9943312e-06
9.9941487e-06
9.9939632e-06
9.9937744e-06
9.9935819e-06
9.9933851e-06
9.9931837e-06
9.9929769e-06
9.9927642e-06
9.9925448e-06
9.992318e-06
9.992083e-06
9.9918387e-06
9.9915842e-06
9.9913184e-06
9.9910402e-06
9.9907485e-06
9.990442e-06
9.9901196e-06
9.9897803e-06
9.9894233e-06
9.9890484e-06
9.9886556e-06
9.9882458e-06
9.9878203e-06
9.9873809e-06
9.9869298e-06
9.9864689e-06
9.9860001e-06
9.9855245e-06
9.985043e-06
9.9845563e-06
9.9840644e-06
9.9835675e-06
9.9830653e-06
9.9825579e-06
9.982045e-06
9.9815263e-06
9.9810018e-06
9.9804714e-06
9.9799348e-06
9.9793921e-06
9.9788432e-06
9.9782882e-06
9.9777272e-06
9.9771603e-06
9.9765876e-06
9.9760093e-06
9.9754259e-06
9.9748374e-06
9.9742443e-06
9.973647e-06
9.9730458e-06
9.9724412e-06
9.9718336e-06
9.9712234e-06
9.9706111e-06
9.9699973e-06
9.9693826e-06
9.9687684e-06
9.9681581e-06
9.9675484e-06
9.9669396e-06
9.9663323e-06
9.9657267e-06
9.9651235e-06
9.964523e-06
9.9639255e-06
9.9633316e-06
9.9627417e-06
9.962156e-06
9.961575e-06
9.9609991e-06
9.9604287e-06
9.959864e-06
9.9593062e-06
9.9587572e-06
9.9582238e-06
9.9999902e-06
9.9999689e-06
9.9999461e-06
9.9999214e-06
9.999895e-06
9.9998666e-06
9.9998363e-06
9.9998039e-06
9.9997695e-06
9.9997329e-06
9.9996942e-06
9.9996534e-06
9.9996104e-06
9.9995652e-06
9.9995179e-06
9.9994683e-06
9.9994166e-06
9.9993628e-06
9.9993067e-06
9.9992486e-06
9.9991883e-06
9.9991259e-06
9.9990615e-06
9.998995e-06
9.9989264e-06
9.9988559e-06
9.9987833e-06
9.9987088e-06
9.9986324e-06
9.9985541e-06
9.9984738e-06
9.9983918e-06
9.9983079e-06
9.9982221e-06
9.9981346e-06
9.9980453e-06
9.9979542e-06
9.9978613e-06
9.9977666e-06
9.9976701e-06
9.9975717e-06
9.9974713e-06
9.997369e-06
9.9972645e-06
9.9971579e-06
9.9970488e-06
9.9969372e-06
9.996823e-06
9.9967057e-06
9.9965854e-06
9.9964616e-06
9.996334e-06
9.9962024e-06
9.9960665e-06
9.9959257e-06
9.9957798e-06
9.9956282e-06
9.9954705e-06
9.9953061e-06
9.9951345e-06
9.9949551e-06
9.9947674e-06
9.9945706e-06
9.9943643e-06
9.9941477e-06
9.9939204e-06
9.9936818e-06
9.9934315e-06
9.9931692e-06
9.9928946e-06
9.9926074e-06
9.9923074e-06
9.9919944e-06
9.9916683e-06
9.9913287e-06
9.9909757e-06
9.9906091e-06
9.9902286e-06
9.9898344e-06
9.9894264e-06
9.9890046e-06
9.9885692e-06
9.9881204e-06
9.9876586e-06
9.9871843e-06
9.9866979e-06
9.9862003e-06
9.9856921e-06
9.9851744e-06
9.984648e-06
9.984114e-06
9.9835734e-06
9.9830273e-06
9.9824768e-06
9.9819228e-06
9.9813664e-06
9.9808085e-06
9.9802499e-06
9.9796915e-06
9.9791341e-06
9.978579e-06
9.9780285e-06
9.9774897e-06
9.9769544e-06
9.9764233e-06
9.9758968e-06
9.9753757e-06
9.9748605e-06
9.974352e-06
9.9738507e-06
9.9733572e-06
9.9728722e-06
9.9723962e-06
9.9719298e-06
9.9714735e-06
9.9710277e-06
9.9705937e-06
9.9701698e-06
9.9697851e-06
9.9693406e-06
1e-05
1e-05
9.9999998e-06
9.9999986e-06
9.9999964e-06
9.9999935e-06
9.9999896e-06
9.9999849e-06
9.9999792e-06
9.9999726e-06
9.9999649e-06
9.9999562e-06
9.9999464e-06
9.9999355e-06
9.9999235e-06
9.9999103e-06
9.999896e-06
9.9998804e-06
9.9998636e-06
9.9998456e-06
9.9998263e-06
9.9998057e-06
9.9997839e-06
9.9997607e-06
9.9997363e-06
9.9997105e-06
9.9996834e-06
9.999655e-06
9.9996253e-06
9.9995942e-06
9.9995618e-06
9.9995281e-06
9.999493e-06
9.9994566e-06
9.9994188e-06
9.9993797e-06
9.9993393e-06
9.9992974e-06
9.9992542e-06
9.9992096e-06
9.9991635e-06
9.999116e-06
9.9990669e-06
9.9990163e-06
9.998964e-06
9.99891e-06
9.9988543e-06
9.9987966e-06
9.998737e-06
9.9986753e-06
9.9986113e-06
9.998545e-06
9.9984762e-06
9.9984047e-06
9.9983303e-06
9.9982529e-06
9.9981722e-06
9.9980881e-06
9.9980003e-06
9.9979086e-06
9.9978127e-06
9.9977124e-06
9.9976074e-06
9.9974974e-06
9.9973822e-06
9.9972613e-06
9.9971346e-06
9.9970017e-06
9.9968624e-06
9.9967162e-06
9.9965631e-06
9.9964026e-06
9.9962346e-06
9.9960587e-06
9.9958748e-06
9.9956827e-06
9.995482e-06
9.9952728e-06
9.9950547e-06
9.9948276e-06
9.9945915e-06
9.9943462e-06
9.9940918e-06
9.9938281e-06
9.9935553e-06
9.9932735e-06
9.9929827e-06
9.9926831e-06
9.992375e-06
9.9920586e-06
9.9917343e-06
9.9914025e-06
9.9910636e-06
9.990718e-06
9.9903664e-06
9.9900091e-06
9.9896469e-06
9.9892802e-06
9.9889097e-06
9.988536e-06
9.9881601e-06
9.9877836e-06
9.9874107e-06
9.9870371e-06
9.9866634e-06
9.9862901e-06
9.9859178e-06
9.9855468e-06
9.9851778e-06
9.9848112e-06
9.9844473e-06
9.9840867e-06
9.9837296e-06
9.9833764e-06
9.9830274e-06
9.9826829e-06
9.9823435e-06
9.982009e-06
9.9816935e-06
9.9813593e-06
1.0000008e-05
1.0000023e-05
1.0000037e-05
1.0000052e-05
1.0000065e-05
1.0000078e-05
1.0000091e-05
1.0000103e-05
1.0000115e-05
1.0000126e-05
1.0000136e-05
1.0000146e-05
1.0000155e-05
1.0000164e-05
1.0000172e-05
1.0000179e-05
1.0000186e-05
1.0000192e-05
1.0000197e-05
1.0000201e-05
1.0000205e-05
1.0000208e-05
1.000021e-05
1.0000212e-05
1.0000212e-05
1.0000212e-05
1.0000211e-05
1.000021e-05
1.0000207e-05
1.0000203e-05
1.0000199e-05
1.0000194e-05
1.0000188e-05
1.0000181e-05
1.0000173e-05
1.0000164e-05
1.0000155e-05
1.0000144e-05
1.0000133e-05
1.000012e-05
1.0000107e-05
1.0000092e-05
1.0000077e-05
1.000006e-05
1.0000042e-05
1.0000023e-05
1.0000003e-05
9.9999811e-06
9.9999581e-06
9.9999337e-06
9.9999077e-06
9.99988e-06
9.9998507e-06
9.9998196e-06
9.9997865e-06
9.9997514e-06
9.9997142e-06
9.9996748e-06
9.9996329e-06
9.9995886e-06
9.9995417e-06
9.999492e-06
9.9994394e-06
9.9993837e-06
9.9993249e-06
9.9992627e-06
9.9991971e-06
9.9991278e-06
9.9990547e-06
9.9989777e-06
9.9988966e-06
9.9988112e-06
9.9987215e-06
9.9986272e-06
9.9985283e-06
9.9984245e-06
9.9983159e-06
9.9982022e-06
9.9980833e-06
9.9979592e-06
9.9978298e-06
9.997695e-06
9.9975547e-06
9.9974089e-06
9.9972576e-06
9.9971008e-06
9.9969384e-06
9.9967706e-06
9.9965973e-06
9.9964186e-06
9.9962347e-06
9.9960456e-06
9.9958514e-06
9.9956525e-06
9.9954488e-06
9.9952407e-06
9.9950284e-06
9.9948121e-06
9.994592e-06
9.9943685e-06
9.994142e-06
9.9939133e-06
9.9936844e-06
9.9934534e-06
9.9932205e-06
9.992986e-06
9.9927502e-06
9.9925134e-06
9.9922758e-06
9.9920378e-06
9.9917995e-06
9.9915613e-06
9.9913233e-06
9.9910859e-06
9.9908491e-06
9.9906133e-06
9.9903788e-06
9.990146e-06
9.9899238e-06
9.9896958e-06
1.0000014e-05
1.0000041e-05
1.0000068e-05
1.0000094e-05
1.000012e-05
1.0000146e-05
1.0000172e-05
1.0000197e-05
1.0000221e-05
1.0000246e-05
1.0000269e-05
1.0000293e-05
1.0000316e-05
1.0000338e-05
1.000036e-05
1.0000382e-05
1.0000403e-05
1.0000424e-05
1.0000444e-05
1.0000464e-05
1.0000483e-05
1.0000502e-05
1.000052e-05
1.0000538e-05
1.0000555e-05
1.0000572e-05
1.0000588e-05
1.0000604e-05
1.0000619e-05
1.0000633e-05
1.0000647e-05
1.000066e-05
1.0000673e-05
1.0000685e-05
1.0000697e-05
1.0000708e-05
1.0000718e-05
1.0000728e-05
1.0000737e-05
1.0000745e-05
1.0000752e-05
1.0000759e-05
1.0000765e-05
1.0000771e-05
1.0000775e-05
1.0000779e-05
1.0000782e-05
1.0000783e-05
1.0000784e-05
1.0000784e-05
1.0000783e-05
1.000078e-05
1.0000776e-05
1.0000771e-05
1.0000765e-05
1.0000757e-05
1.0000747e-05
1.0000736e-05
1.0000724e-05
1.0000709e-05
1.0000693e-05
1.0000675e-05
1.0000654e-05
1.0000632e-05
1.0000607e-05
1.000058e-05
1.0000551e-05
1.0000519e-05
1.0000485e-05
1.0000448e-05
1.0000409e-05
1.0000366e-05
1.0000321e-05
1.0000273e-05
1.0000221e-05
1.0000167e-05
1.0000109e-05
1.0000049e-05
9.9999846e-06
9.9999171e-06
9.9998463e-06
9.9997721e-06
9.9996944e-06
9.9996132e-06
9.9995285e-06
9.9994403e-06
9.9993487e-06
9.9992535e-06
9.999155e-06
9.9990529e-06
9.9989476e-06
9.9988388e-06
9.9987269e-06
9.9986117e-06
9.9984935e-06
9.9983722e-06
9.9982481e-06
9.9981211e-06
9.9979916e-06
9.9978595e-06
9.9977251e-06
9.9975889e-06
9.9974522e-06
9.9973137e-06
9.9971734e-06
9.9970315e-06
9.9968882e-06
9.9967436e-06
9.9965979e-06
9.9964512e-06
9.9963037e-06
9.9961556e-06
9.9960068e-06
9.9958577e-06
9.9957083e-06
9.9955587e-06
9.9954093e-06
9.9952605e-06
9.9951188e-06
9.9949721e-06
1.0000019e-05
1.0000057e-05
1.0000094e-05
1.0000131e-05
1.0000168e-05
1.0000205e-05
1.0000241e-05
1.0000277e-05
1.0000313e-05
1.0000348e-05
1.0000383e-05
1.0000418e-05
1.0000453e-05
1.0000487e-05
1.000052e-05
1.0000554e-05
1.0000587e-05
1.000062e-05
1.0000652e-05
1.0000684e-05
1.0000715e-05
1.0000747e-05
1.0000777e-05
1.0000808e-05
1.0000838e-05
1.0000867e-05
1.0000896e-05
1.0000925e-05
1.0000954e-05
1.0000982e-05
1.0001009e-05
1.0001036e-05
1.0001063e-05
1.0001089e-05
1.0001115e-05
1.000114e-05
1.0001165e-05
1.0001189e-05
1.0001213e-05
1.0001236e-05
1.0001259e-05
1.0001281e-05
1.0001303e-05
1.0001324e-05
1.0001344e-05
1.0001364e-05
1.0001383e-05
1.0001402e-05
1.0001419e-05
1.0001436e-05
1.0001452e-05
1.0001467e-05
1.0001481e-05
1.0001494e-05
1.0001506e-05
1.0001517e-05
1.0001527e-05
1.0001535e-05
1.0001542e-05
1.0001548e-05
1.0001553e-05
1.0001556e-05
1.0001557e-05
1.0001557e-05
1.0001555e-05
1.0001552e-05
1.0001546e-05
1.0001539e-05
1.000153e-05
1.0001519e-05
1.0001506e-05
1.0001491e-05
1.0001474e-05
1.0001454e-05
1.0001433e-05
1.0001409e-05
1.0001382e-05
1.0001354e-05
1.0001323e-05
1.000129e-05
1.0001254e-05
1.0001216e-05
1.0001175e-05
1.0001132e-05
1.0001086e-05
1.0001038e-05
1.0000988e-05
1.0000935e-05
1.000088e-05
1.0000822e-05
1.0000762e-05
1.0000699e-05
1.0000635e-05
1.0000568e-05
1.0000499e-05
1.0000428e-05
1.0000355e-05
1.000028e-05
1.0000203e-05
1.0000125e-05
1.0000044e-05
9.9999629e-06
9.9998811e-06
9.999798e-06
9.9997136e-06
9.999628e-06
9.9995414e-06
9.9994538e-06
9.9993653e-06
9.9992761e-06
9.9991862e-06
9.9990957e-06
9.9990046e-06
9.9989132e-06
9.9988215e-06
9.9987296e-06
9.9986377e-06
9.9985462e-06
9.9984603e-06
9.9983684e-06
1.0000024e-05
1.0000071e-05
1.0000118e-05
1.0000165e-05
1.0000212e-05
1.0000258e-05
1.0000304e-05
1.000035e-05
1.0000396e-05
1.0000441e-05
1.0000486e-05
1.0000531e-05
1.0000576e-05
1.000062e-05
1.0000664e-05
1.0000708e-05
1.0000751e-05
1.0000794e-05
1.0000837e-05
1.0000879e-05
1.0000922e-05
1.0000964e-05
1.0001005e-05
1.0001046e-05
1.0001087e-05
1.0001128e-05
1.0001168e-05
1.0001208e-05
1.0001248e-05
1.0001287e-05
1.0001326e-05
1.0001364e-05
1.0001403e-05
1.000144e-05
1.0001478e-05
1.0001515e-05
1.0001552e-05
1.0001588e-05
1.0001624e-05
1.0001659e-05
1.0001694e-05
1.0001729e-05
1.0001763e-05
1.0001797e-05
1.000183e-05
1.0001862e-05
1.0001894e-05
1.0001926e-05
1.0001956e-05
1.0001986e-05
1.0002016e-05
1.0002044e-05
1.0002072e-05
1.0002099e-05
1.0002125e-05
1.000215e-05
1.0002175e-05
1.0002198e-05
1.000222e-05
1.0002241e-05
1.0002261e-05
1.000228e-05
1.0002297e-05
1.0002313e-05
1.0002328e-05
1.0002342e-05
1.0002354e-05
1.0002364e-05
1.0002373e-05
1.0002381e-05
1.0002386e-05
1.000239e-05
1.0002393e-05
1.0002393e-05
1.0002392e-05
1.0002389e-05
1.0002384e-05
1.0002378e-05
1.0002369e-05
1.0002359e-05
1.0002346e-05
1.0002332e-05
1.0002316e-05
1.0002297e-05
1.0002277e-05
1.0002255e-05
1.0002231e-05
1.0002206e-05
1.0002178e-05
1.0002148e-05
1.0002117e-05
1.0002084e-05
1.0002049e-05
1.0002012e-05
1.0001974e-05
1.0001934e-05
1.0001892e-05
1.000185e-05
1.0001805e-05
1.000176e-05
1.0001713e-05
1.0001665e-05
1.0001617e-05
1.0001568e-05
1.0001518e-05
1.0001467e-05
1.0001415e-05
1.0001363e-05
1.000131e-05
1.0001256e-05
1.0001202e-05
1.0001148e-05
1.0001093e-05
1.0001038e-05
1.0000982e-05
1.0000927e-05
1.0000872e-05
1.0000817e-05
1.0000767e-05
1.000071e-05
1.0000028e-05
1.0000084e-05
1.000014e-05
1.0000196e-05
1.0000252e-05
1.0000307e-05
1.0000362e-05
1.0000417e-05
1.0000472e-05
1.0000527e-05
1.0000581e-05
1.0000635e-05
1.0000689e-05
1.0000743e-05
1.0000796e-05
1.0000849e-05
1.0000902e-05
1.0000955e-05
1.0001008e-05
1.000106e-05
1.0001112e-05
1.0001163e-05
1.0001215e-05
1.0001266e-05
1.0001317e-05
1.0001367e-05
1.0001417e-05
1.0001467e-05
1.0001517e-05
1.0001566e-05
1.0001616e-05
1.0001664e-05
1.0001713e-05
1.0001761e-05
1.0001809e-05
1.0001856e-05
1.0001903e-05
1.000195e-05
1.0001997e-05
1.0002043e-05
1.0002089e-05
1.0002134e-05
1.0002179e-05
1.0002223e-05
1.0002267e-05
1.0002311e-05
1.0002354e-05
1.0002396e-05
1.0002438e-05
1.0002479e-05
1.000252e-05
1.000256e-05
1.0002599e-05
1.0002638e-05
1.0002676e-05
1.0002713e-05
1.0002749e-05
1.0002784e-05
1.0002819e-05
1.0002852e-05
1.0002885e-05
1.0002916e-05
1.0002947e-05
1.0002976e-05
1.0003004e-05
1.0003031e-05
1.0003057e-05
1.0003081e-05
1.0003104e-05
1.0003126e-05
1.0003146e-05
1.0003165e-05
1.0003182e-05
1.0003198e-05
1.0003212e-05
1.0003225e-05
1.0003236e-05
1.0003246e-05
1.0003254e-05
1.000326e-05
1.0003265e-05
1.0003268e-05
1.000327e-05
1.0003269e-05
1.0003268e-05
1.0003264e-05
1.0003259e-05
1.0003253e-05
1.0003244e-05
1.0003234e-05
1.0003223e-05
1.000321e-05
1.0003196e-05
1.000318e-05
1.0003162e-05
1.0003144e-05
1.0003124e-05
1.0003102e-05
1.000308e-05
1.0003056e-05
1.0003031e-05
1.0003006e-05
1.000298e-05
1.0002954e-05
1.0002926e-05
1.0002898e-05
1.0002869e-05
1.000284e-05
1.000281e-05
1.000278e-05
1.0002749e-05
1.0002718e-05
1.0002686e-05
1.0002654e-05
1.0002623e-05
1.0002591e-05
1.0002559e-05
1.0002528e-05
1.0002501e-05
1.0002466e-05
1.0000032e-05
1.0000097e-05
1.0000161e-05
1.0000226e-05
1.000029e-05
1.0000354e-05
1.0000417e-05
1.0000481e-05
1.0000544e-05
1.0000608e-05
1.0000671e-05
1.0000734e-05
1.0000796e-05
1.0000859e-05
1.0000921e-05
1.0000983e-05
1.0001045e-05
1.0001107e-05
1.0001168e-05
1.0001229e-05
1.000129e-05
1.0001351e-05
1.0001412e-05
1.0001472e-05
1.0001532e-05
1.0001592e-05
1.0001651e-05
1.0001711e-05
1.000177e-05
1.0001829e-05
1.0001887e-05
1.0001945e-05
1.0002003e-05
1.0002061e-05
1.0002118e-05
1.0002175e-05
1.0002232e-05
1.0002289e-05
1.0002345e-05
1.0002401e-05
1.0002456e-05
1.0002511e-05
1.0002566e-05
1.000262e-05
1.0002674e-05
1.0002727e-05
1.000278e-05
1.0002833e-05
1.0002885e-05
1.0002936e-05
1.0002987e-05
1.0003037e-05
1.0003087e-05
1.0003136e-05
1.0003184e-05
1.0003232e-05
1.0003278e-05
1.0003324e-05
1.0003369e-05
1.0003414e-05
1.0003457e-05
1.0003499e-05
1.0003541e-05
1.0003581e-05
1.0003621e-05
1.0003659e-05
1.0003696e-05
1.0003732e-05
1.0003767e-05
1.0003801e-05
1.0003833e-05
1.0003864e-05
1.0003894e-05
1.0003922e-05
1.0003949e-05
1.0003975e-05
1.0003999e-05
1.0004022e-05
1.0004043e-05
1.0004063e-05
1.0004081e-05
1.0004098e-05
1.0004114e-05
1.0004128e-05
1.000414e-05
1.0004151e-05
1.000416e-05
1.0004168e-05
1.0004175e-05
1.000418e-05
1.0004184e-05
1.0004186e-05
1.0004187e-05
1.0004186e-05
1.0004185e-05
1.0004182e-05
1.0004177e-05
1.0004172e-05
1.0004165e-05
1.0004158e-05
1.0004149e-05
1.0004139e-05
1.000413e-05
1.0004119e-05
1.0004108e-05
1.0004096e-05
1.0004083e-05
1.000407e-05
1.0004056e-05
1.0004042e-05
1.0004027e-05
1.0004012e-05
1.0003996e-05
1.0003981e-05
1.0003965e-05
1.0003949e-05
1.0003933e-05
1.0003917e-05
1.0003906e-05
1.0003886e-05
1.0000036e-05
1.0000109e-05
1.0000181e-05
1.0000254e-05
1.0000326e-05
1.0000398e-05
1.000047e-05
1.0000542e-05
1.0000613e-05
1.0000685e-05
1.0000756e-05
1.0000828e-05
1.0000899e-05
1.000097e-05
1.000104e-05
1.0001111e-05
1.0001181e-05
1.0001251e-05
1.0001321e-05
1.0001391e-05
1.0001461e-05
1.000153e-05
1.00016e-05
1.0001669e-05
1.0001737e-05
1.0001806e-05
1.0001874e-05
1.0001942e-05
1.000201e-05
1.0002078e-05
1.0002146e-05
1.0002213e-05
1.000228e-05
1.0002346e-05
1.0002413e-05
1.0002479e-05
1.0002545e-05
1.000261e-05
1.0002676e-05
1.0002741e-05
1.0002805e-05
1.0002869e-05
1.0002933e-05
1.0002997e-05
1.000306e-05
1.0003123e-05
1.0003185e-05
1.0003247e-05
1.0003308e-05
1.0003369e-05
1.0003429e-05
1.0003488e-05
1.0003548e-05
1.0003606e-05
1.0003664e-05
1.0003721e-05
1.0003777e-05
1.0003833e-05
1.0003888e-05
1.0003942e-05
1.0003995e-05
1.0004047e-05
1.0004098e-05
1.0004149e-05
1.0004198e-05
1.0004247e-05
1.0004294e-05
1.000434e-05
1.0004386e-05
1.000443e-05
1.0004473e-05
1.0004514e-05
1.0004555e-05
1.0004594e-05
1.0004632e-05
1.0004668e-05
1.0004704e-05
1.0004738e-05
1.000477e-05
1.0004801e-05
1.0004831e-05
1.000486e-05
1.0004887e-05
1.0004912e-05
1.0004936e-05
1.0004959e-05
1.0004981e-05
1.0005001e-05
1.0005019e-05
1.0005037e-05
1.0005052e-05
1.0005067e-05
1.000508e-05
1.0005092e-05
1.0005102e-05
1.0005112e-05
1.000512e-05
1.0005127e-05
1.0005133e-05
1.0005137e-05
1.0005141e-05
1.0005144e-05
1.0005146e-05
1.0005148e-05
1.0005149e-05
1.0005149e-05
1.0005149e-05
1.0005147e-05
1.0005146e-05
1.0005143e-05
1.000514e-05
1.0005137e-05
1.0005133e-05
1.0005129e-05
1.0005124e-05
1.0005119e-05
1.0005115e-05
1.000511e-05
1.0005108e-05
1.00051e-05
1.000004e-05
1.000012e-05
1.0000201e-05
1.0000281e-05
1.0000361e-05
1.0000441e-05
1.0000521e-05
1.00006e-05
1.000068e-05
1.000076e-05
1.0000839e-05
1.0000918e-05
1.0000997e-05
1.0001076e-05
1.0001155e-05
1.0001234e-05
1.0001312e-05
1.0001391e-05
1.0001469e-05
1.0001547e-05
1.0001625e-05
1.0001703e-05
1.000178e-05
1.0001858e-05
1.0001935e-05
1.0002012e-05
1.0002089e-05
1.0002165e-05
1.0002242e-05
1.0002318e-05
1.0002394e-05
1.000247e-05
1.0002545e-05
1.0002621e-05
1.0002696e-05
1.0002771e-05
1.0002845e-05
1.0002919e-05
1.0002993e-05
1.0003067e-05
1.000314e-05
1.0003213e-05
1.0003286e-05
1.0003358e-05
1.000343e-05
1.0003502e-05
1.0003573e-05
1.0003643e-05
1.0003713e-05
1.0003783e-05
1.0003852e-05
1.0003921e-05
1.0003988e-05
1.0004056e-05
1.0004123e-05
1.0004189e-05
1.0004254e-05
1.0004319e-05
1.0004382e-05
1.0004446e-05
1.0004508e-05
1.0004569e-05
1.000463e-05
1.0004689e-05
1.0004748e-05
1.0004806e-05
1.0004863e-05
1.0004918e-05
1.0004973e-05
1.0005026e-05
1.0005079e-05
1.000513e-05
1.000518e-05
1.0005229e-05
1.0005276e-05
1.0005323e-05
1.0005368e-05
1.0005412e-05
1.0005454e-05
1.0005495e-05
1.0005535e-05
1.0005574e-05
1.0005611e-05
1.0005646e-05
1.0005681e-05
1.0005714e-05
1.0005745e-05
1.0005776e-05
1.0005804e-05
1.0005832e-05
1.0005858e-05
1.0005883e-05
1.0005906e-05
1.0005928e-05
1.0005949e-05
1.0005969e-05
1.0005987e-05
1.0006004e-05
1.000602e-05
1.0006035e-05
1.0006048e-05
1.0006061e-05
1.0006074e-05
1.0006085e-05
1.0006096e-05
1.0006106e-05
1.0006115e-05
1.0006123e-05
1.000613e-05
1.0006137e-05
1.0006143e-05
1.0006148e-05
1.0006153e-05
1.0006158e-05
1.0006162e-05
1.0006165e-05
1.0006169e-05
1.0006172e-05
1.000618e-05
1.0006177e-05
1.0000044e-05
1.0000132e-05
1.0000219e-05
1.0000307e-05
1.0000395e-05
1.0000482e-05
1.000057e-05
1.0000657e-05
1.0000745e-05
1.0000832e-05
1.0000919e-05
1.0001006e-05
1.0001093e-05
1.000118e-05
1.0001266e-05
1.0001353e-05
1.000144e-05
1.0001526e-05
1.0001612e-05
1.0001698e-05
1.0001784e-05
1.000187e-05
1.0001956e-05
1.0002041e-05
1.0002126e-05
1.0002212e-05
1.0002297e-05
1.0002382e-05
1.0002466e-05
1.0002551e-05
1.0002635e-05
1.0002719e-05
1.0002803e-05
1.0002886e-05
1.000297e-05
1.0003053e-05
1.0003136e-05
1.0003218e-05
1.0003301e-05
1.0003383e-05
1.0003465e-05
1.0003546e-05
1.0003627e-05
1.0003708e-05
1.0003788e-05
1.0003868e-05
1.0003947e-05
1.0004026e-05
1.0004105e-05
1.0004183e-05
1.0004261e-05
1.0004338e-05
1.0004414e-05
1.000449e-05
1.0004565e-05
1.000464e-05
1.0004714e-05
1.0004787e-05
1.0004859e-05
1.0004931e-05
1.0005002e-05
1.0005072e-05
1.0005141e-05
1.0005209e-05
1.0005277e-05
1.0005343e-05
1.0005409e-05
1.0005473e-05
1.0005536e-05
1.0005599e-05
1.000566e-05
1.000572e-05
1.0005779e-05
1.0005836e-05
1.0005893e-05
1.0005948e-05
1.0006002e-05
1.0006055e-05
1.0006106e-05
1.0006156e-05
1.0006205e-05
1.0006252e-05
1.0006299e-05
1.0006343e-05
1.0006387e-05
1.0006429e-05
1.0006469e-05
1.0006508e-05
1.0006546e-05
1.0006583e-05
1.0006618e-05
1.0006651e-05
1.0006683e-05
1.0006714e-05
1.0006744e-05
1.0006772e-05
1.0006799e-05
1.0006825e-05
1.0006849e-05
1.0006872e-05
1.0006894e-05
1.0006915e-05
1.0006936e-05
1.0006956e-05
1.0006974e-05
1.0006992e-05
1.0007008e-05
1.0007024e-05
1.0007039e-05
1.0007053e-05
1.0007066e-05
1.0007078e-05
1.000709e-05
1.0007101e-05
1.0007112e-05
1.0007122e-05
1.0007131e-05
1.0007141e-05
1.0007155e-05
1.0007155e-05
1.0000048e-05
1.0000143e-05
1.0000238e-05
1.0000333e-05
1.0000428e-05
1.0000523e-05
1.0000618e-05
1.0000713e-05
1.0000807e-05
1.0000902e-05
1.0000997e-05
1.0001091e-05
1.0001186e-05
1.000128e-05
1.0001375e-05
1.0001469e-05
1.0001563e-05
1.0001657e-05
1.0001751e-05
1.0001845e-05
1.0001939e-05
1.0002033e-05
1.0002126e-05
1.000222e-05
1.0002313e-05
1.0002406e-05
1.0002499e-05
1.0002592e-05
1.0002684e-05
1.0002777e-05
1.0002869e-05
1.0002961e-05
1.0003053e-05
1.0003145e-05
1.0003236e-05
1.0003328e-05
1.0003419e-05
1.0003509e-05
1.00036e-05
1.000369e-05
1.000378e-05
1.0003869e-05
1.0003959e-05
1.0004047e-05
1.0004136e-05
1.0004224e-05
1.0004312e-05
1.0004399e-05
1.0004486e-05
1.0004572e-05
1.0004658e-05
1.0004743e-05
1.0004828e-05
1.0004912e-05
1.0004995e-05
1.0005078e-05
1.000516e-05
1.0005241e-05
1.0005322e-05
1.0005402e-05
1.0005481e-05
1.0005559e-05
1.0005636e-05
1.0005713e-05
1.0005788e-05
1.0005863e-05
1.0005937e-05
1.0006009e-05
1.0006081e-05
1.0006151e-05
1.0006221e-05
1.0006289e-05
1.0006356e-05
1.0006422e-05
1.0006486e-05
1.000655e-05
1.0006612e-05
1.0006673e-05
1.0006733e-05
1.0006791e-05
1.0006848e-05
1.0006903e-05
1.0006958e-05
1.000701e-05
1.0007062e-05
1.0007112e-05
1.0007161e-05
1.0007208e-05
1.0007254e-05
1.0007298e-05
1.0007341e-05
1.0007382e-05
1.0007422e-05
1.0007461e-05
1.0007498e-05
1.0007534e-05
1.0007568e-05
1.0007602e-05
1.0007633e-05
1.0007664e-05
1.0007693e-05
1.0007721e-05
1.0007748e-05
1.0007774e-05
1.0007799e-05
1.0007823e-05
1.0007846e-05
1.0007868e-05
1.0007889e-05
1.0007909e-05
1.0007927e-05
1.0007945e-05
1.0007962e-05
1.0007978e-05
1.0007994e-05
1.0008009e-05
1.0008023e-05
1.0008036e-05
1.0008055e-05
1.0008057e-05
1.0000051e-05
1.0000153e-05
1.0000256e-05
1.0000358e-05
1.000046e-05
1.0000562e-05
1.0000664e-05
1.0000766e-05
1.0000869e-05
1.0000971e-05
1.0001073e-05
1.0001175e-05
1.0001277e-05
1.0001379e-05
1.000148e-05
1.0001582e-05
1.0001684e-05
1.0001786e-05
1.0001887e-05
1.0001989e-05
1.000209e-05
1.0002191e-05
1.0002293e-05
1.0002394e-05
1.0002495e-05
1.0002595e-05
1.0002696e-05
1.0002797e-05
1.0002897e-05
1.0002997e-05
1.0003098e-05
1.0003198e-05
1.0003297e-05
1.0003397e-05
1.0003496e-05
1.0003595e-05
1.0003694e-05
1.0003793e-05
1.0003891e-05
1.000399e-05
1.0004087e-05
1.0004185e-05
1.0004282e-05
1.0004379e-05
1.0004475e-05
1.0004571e-05
1.0004667e-05
1.0004762e-05
1.0004857e-05
1.0004951e-05
1.0005045e-05
1.0005138e-05
1.000523e-05
1.0005322e-05
1.0005414e-05
1.0005504e-05
1.0005594e-05
1.0005684e-05
1.0005772e-05
1.000586e-05
1.0005947e-05
1.0006033e-05
1.0006118e-05
1.0006202e-05
1.0006286e-05
1.0006368e-05
1.000645e-05
1.000653e-05
1.0006609e-05
1.0006687e-05
1.0006765e-05
1.000684e-05
1.0006915e-05
1.0006989e-05
1.0007061e-05
1.0007132e-05
1.0007202e-05
1.0007271e-05
1.0007338e-05
1.0007404e-05
1.0007468e-05
1.0007531e-05
1.0007593e-05
1.0007653e-05
1.0007712e-05
1.0007769e-05
1.0007825e-05
1.000788e-05
1.0007933e-05
1.0007984e-05
1.0008034e-05
1.0008083e-05
1.0008129e-05
1.0008175e-05
1.0008219e-05
1.0008261e-05
1.0008302e-05
1.0008342e-05
1.000838e-05
1.0008416e-05
1.0008451e-05
1.0008485e-05
1.0008518e-05
1.000855e-05
1.0008581e-05
1.000861e-05
1.0008638e-05
1.0008665e-05
1.0008691e-05
1.0008715e-05
1.0008738e-05
1.000876e-05
1.0008781e-05
1.0008801e-05
1.000882e-05
1.0008838e-05
1.0008855e-05
1.0008872e-05
1.0008893e-05
1.0008895e-05
1.0000055e-05
1.0000164e-05
1.0000273e-05
1.0000382e-05
1.0000491e-05
1.0000601e-05
1.000071e-05
1.0000819e-05
1.0000928e-05
1.0001038e-05
1.0001147e-05
1.0001256e-05
1.0001365e-05
1.0001474e-05
1.0001584e-05
1.0001693e-05
1.0001802e-05
1.0001911e-05
1.000202e-05
1.0002129e-05
1.0002238e-05
1.0002346e-05
1.0002455e-05
1.0002564e-05
1.0002672e-05
1.0002781e-05
1.0002889e-05
1.0002997e-05
1.0003105e-05
1.0003213e-05
1.0003321e-05
1.0003429e-05
1.0003536e-05
1.0003643e-05
1.000375e-05
1.0003857e-05
1.0003964e-05
1.000407e-05
1.0004176e-05
1.0004282e-05
1.0004388e-05
1.0004493e-05
1.0004598e-05
1.0004703e-05
1.0004807e-05
1.0004911e-05
1.0005014e-05
1.0005117e-05
1.0005219e-05
1.0005321e-05
1.0005423e-05
1.0005524e-05
1.0005624e-05
1.0005723e-05
1.0005822e-05
1.0005921e-05
1.0006018e-05
1.0006115e-05
1.0006211e-05
1.0006307e-05
1.0006401e-05
1.0006495e-05
1.0006588e-05
1.0006679e-05
1.000677e-05
1.000686e-05
1.0006949e-05
1.0007037e-05
1.0007123e-05
1.0007209e-05
1.0007294e-05
1.0007377e-05
1.0007459e-05
1.000754e-05
1.0007619e-05
1.0007698e-05
1.0007775e-05
1.000785e-05
1.0007924e-05
1.0007997e-05
1.0008069e-05
1.0008139e-05
1.0008207e-05
1.0008274e-05
1.000834e-05
1.0008404e-05
1.0008467e-05
1.0008528e-05
1.0008587e-05
1.0008645e-05
1.0008701e-05
1.0008756e-05
1.0008809e-05
1.000886e-05
1.000891e-05
1.0008959e-05
1.0009005e-05
1.000905e-05
1.0009094e-05
1.0009135e-05
1.0009176e-05
1.0009215e-05
1.0009253e-05
1.0009289e-05
1.0009324e-05
1.0009358e-05
1.000939e-05
1.0009421e-05
1.000945e-05
1.0009478e-05
1.0009505e-05
1.000953e-05
1.0009554e-05
1.0009576e-05
1.0009597e-05
1.0009618e-05
1.0009637e-05
1.0009655e-05
1.0009678e-05
1.0009678e-05
1.0000058e-05
1.0000174e-05
1.000029e-05
1.0000406e-05
1.0000522e-05
1.0000638e-05
1.0000754e-05
1.000087e-05
1.0000987e-05
1.0001103e-05
1.0001219e-05
1.0001335e-05
1.0001452e-05
1.0001568e-05
1.0001684e-05
1.0001801e-05
1.0001917e-05
1.0002033e-05
1.0002149e-05
1.0002266e-05
1.0002382e-05
1.0002498e-05
1.0002614e-05
1.000273e-05
1.0002846e-05
1.0002962e-05
1.0003077e-05
1.0003193e-05
1.0003309e-05
1.0003424e-05
1.0003539e-05
1.0003655e-05
1.000377e-05
1.0003884e-05
1.0003999e-05
1.0004113e-05
1.0004228e-05
1.0004342e-05
1.0004455e-05
1.0004569e-05
1.0004682e-05
1.0004795e-05
1.0004907e-05
1.000502e-05
1.0005131e-05
1.0005243e-05
1.0005354e-05
1.0005464e-05
1.0005574e-05
1.0005684e-05
1.0005792e-05
1.0005901e-05
1.0006009e-05
1.0006116e-05
1.0006222e-05
1.0006328e-05
1.0006433e-05