/*--------------------------------*- C++ -*----------------------------------*\
| =========                 |                                                 |
| \\      /  F ield         | OpenFOAM: The Open Source CFD Toolbox           |
|  \\    /   O peration     | Version:  v2012                                 |
|   \\  /    A nd           | Website:  www.openfoam.com                      |
|    \\/     M anipulation  |                                                 |
\*---------------------------------------------------------------------------*/
FoamFile
{
    version     2.0;
    format      ascii;
    class       volScalarField;
    location    "100";
    object      nuTilda_0;
}
// * * * * * * * * * * * * * * * * * * * * * * * * * * * * * * * * * * * * * //

dimensions      [0 2 -1 0 0 0 0];


internalField   nonuniform List<scalar> 
123200
(
9.9998541e-06
9.9995631e-06
9.9992727e-06
9.9989828e-06
9.9986936e-06
9.9984048e-06
9.9981164e-06
9.9978284e-06
9.9975407e-06
9.9972533e-06
9.9969662e-06
9.9966793e-06
9.9963926e-06
9.9961062e-06
9.9958199e-06
9.9955338e-06
9.9952478e-06
9.9949621e-06
9.9946764e-06
9.994391e-06
9.9941057e-06
9.9938206e-06
9.9935356e-06
9.9932509e-06
9.9929663e-06
9.9926819e-06
9.9923977e-06
9.9921137e-06
9.9918299e-06
9.9915463e-06
9.9912629e-06
9.9909796e-06
9.9906966e-06
9.9904136e-06
9.9901307e-06
9.9898479e-06
9.9895649e-06
9.9892816e-06
9.9889979e-06
9.9887136e-06
9.9884284e-06
9.988142e-06
9.9878541e-06
9.9875643e-06
9.9872723e-06
9.9869776e-06
9.9866799e-06
9.9863786e-06
9.9860733e-06
9.9857636e-06
9.985449e-06
9.985129e-06
9.9848031e-06
9.984471e-06
9.9841321e-06
9.983786e-06
9.9834323e-06
9.9830706e-06
9.9827005e-06
9.9823217e-06
9.9819337e-06
9.9815363e-06
9.981129e-06
9.9807118e-06
9.9802842e-06
9.979846e-06
9.9793971e-06
9.9789372e-06
9.9784663e-06
9.9779843e-06
9.977491e-06
9.9769865e-06
9.9764708e-06
9.975944e-06
9.9754061e-06
9.9748574e-06
9.9742979e-06
9.9737279e-06
9.9731476e-06
9.9725572e-06
9.9719572e-06
9.9713477e-06
9.9707291e-06
9.9701018e-06
9.9694662e-06
9.9688226e-06
9.9681716e-06
9.9675134e-06
9.9668486e-06
9.9661777e-06
9.9655011e-06
9.9648192e-06
9.9641327e-06
9.9634419e-06
9.9627474e-06
9.9620496e-06
9.9613492e-06
9.9606465e-06
9.9599422e-06
9.9592367e-06
9.9585309e-06
9.9578262e-06
9.957127e-06
9.9564287e-06
9.9557315e-06
9.955036e-06
9.9543425e-06
9.9536516e-06
9.9529635e-06
9.9522788e-06
9.9515977e-06
9.9509207e-06
9.9502481e-06
9.9495801e-06
9.9489171e-06
9.9482594e-06
9.9476072e-06
9.9469607e-06
9.9463204e-06
9.9456863e-06
9.999883e-06
9.999648e-06
9.999412e-06
9.9991748e-06
9.9989365e-06
9.9986971e-06
9.9984567e-06
9.9982154e-06
9.9979733e-06
9.9977304e-06
9.9974869e-06
9.9972429e-06
9.9969985e-06
9.9967537e-06
9.9965088e-06
9.9962637e-06
9.9960186e-06
9.9957736e-06
9.9955286e-06
9.9952837e-06
9.995039e-06
9.9947944e-06
9.9945501e-06
9.994306e-06
9.994062e-06
9.9938183e-06
9.9935747e-06
9.9933313e-06
9.9930881e-06
9.9928449e-06
9.9926019e-06
9.9923589e-06
9.992116e-06
9.9918731e-06
9.99163e-06
9.9913869e-06
9.9911435e-06
9.9908997e-06
9.9906554e-06
9.9904105e-06
9.9901647e-06
9.9899178e-06
9.9896695e-06
9.9894195e-06
9.9891675e-06
9.9889132e-06
9.988656e-06
9.9883958e-06
9.9881319e-06
9.9878639e-06
9.9875915e-06
9.9873141e-06
9.9870312e-06
9.9867423e-06
9.986447e-06
9.9861447e-06
9.9858349e-06
9.9855171e-06
9.9851907e-06
9.9848552e-06
9.9845102e-06
9.984155e-06
9.9837893e-06
9.9834125e-06
9.9830244e-06
9.9826245e-06
9.9822127e-06
9.9817889e-06
9.9813529e-06
9.980905e-06
9.9804451e-06
9.9799736e-06
9.9794906e-06
9.9789964e-06
9.9784912e-06
9.9779755e-06
9.9774494e-06
9.9769132e-06
9.9763673e-06
9.975812e-06
9.9752475e-06
9.9746742e-06
9.9740925e-06
9.9735026e-06
9.972905e-06
9.9722998e-06
9.9716876e-06
9.9710687e-06
9.9704435e-06
9.9698123e-06
9.9691755e-06
9.9685337e-06
9.9678871e-06
9.9672362e-06
9.9665814e-06
9.9659233e-06
9.9652621e-06
9.9645985e-06
9.9639327e-06
9.9632654e-06
9.9625972e-06
9.9619294e-06
9.9612658e-06
9.9606025e-06
9.9599398e-06
9.9592781e-06
9.9586179e-06
9.9579595e-06
9.9573034e-06
9.9566499e-06
9.9559993e-06
9.9553521e-06
9.9547086e-06
9.9540691e-06
9.9534339e-06
9.9528033e-06
9.9521775e-06
9.9515571e-06
9.9509426e-06
9.9503358e-06
9.9999701e-06
9.9999044e-06
9.9998333e-06
9.9997569e-06
9.9996756e-06
9.9995896e-06
9.999499e-06
9.9994042e-06
9.9993052e-06
9.9992022e-06
9.9990955e-06
9.9989851e-06
9.9988712e-06
9.998754e-06
9.9986337e-06
9.9985102e-06
9.9983838e-06
9.9982545e-06
9.9981226e-06
9.997988e-06
9.9978509e-06
9.9977114e-06
9.9975696e-06
9.9974256e-06
9.9972793e-06
9.997131e-06
9.9969807e-06
9.9968284e-06
9.9966742e-06
9.9965182e-06
9.9963604e-06
9.9962009e-06
9.9960397e-06
9.9958768e-06
9.9957122e-06
9.995546e-06
9.9953782e-06
9.9952086e-06
9.9950372e-06
9.994864e-06
9.9946887e-06
9.9945113e-06
9.9943315e-06
9.994149e-06
9.9939635e-06
9.9937747e-06
9.9935822e-06
9.9933855e-06
9.993184e-06
9.9929773e-06
9.9927646e-06
9.9925452e-06
9.9923185e-06
9.9920834e-06
9.9918392e-06
9.9915847e-06
9.991319e-06
9.9910409e-06
9.9907492e-06
9.9904428e-06
9.9901205e-06
9.9897813e-06
9.9894245e-06
9.9890497e-06
9.988657e-06
9.9882473e-06
9.9878219e-06
9.9873826e-06
9.9869316e-06
9.9864709e-06
9.9860021e-06
9.9855266e-06
9.9850453e-06
9.9845586e-06
9.9840669e-06
9.98357e-06
9.983068e-06
9.9825606e-06
9.9820478e-06
9.9815293e-06
9.9810049e-06
9.9804746e-06
9.9799382e-06
9.9793956e-06
9.9788469e-06
9.9782921e-06
9.9777312e-06
9.9771644e-06
9.9765919e-06
9.9760138e-06
9.9754305e-06
9.9748422e-06
9.9742493e-06
9.9736522e-06
9.9730511e-06
9.9724466e-06
9.9718391e-06
9.9712291e-06
9.9706169e-06
9.9700032e-06
9.9693885e-06
9.9687744e-06
9.9681641e-06
9.9675544e-06
9.9669456e-06
9.9663382e-06
9.9657326e-06
9.9651293e-06
9.9645286e-06
9.963931e-06
9.9633369e-06
9.9627467e-06
9.9621608e-06
9.9615795e-06
9.9610033e-06
9.9604325e-06
9.9598674e-06
9.9593091e-06
9.9587596e-06
9.9582258e-06
9.9999902e-06
9.9999689e-06
9.9999461e-06
9.9999215e-06
9.999895e-06
9.9998667e-06
9.9998363e-06
9.999804e-06
9.9997695e-06
9.999733e-06
9.9996943e-06
9.9996535e-06
9.9996105e-06
9.9995653e-06
9.9995179e-06
9.9994684e-06
9.9994167e-06
9.9993628e-06
9.9993068e-06
9.9992487e-06
9.9991884e-06
9.999126e-06
9.9990616e-06
9.9989951e-06
9.9989265e-06
9.998856e-06
9.9987834e-06
9.9987089e-06
9.9986325e-06
9.9985542e-06
9.998474e-06
9.9983919e-06
9.998308e-06
9.9982223e-06
9.9981347e-06
9.9980454e-06
9.9979543e-06
9.9978615e-06
9.9977668e-06
9.9976703e-06
9.9975719e-06
9.9974715e-06
9.9973692e-06
9.9972648e-06
9.9971581e-06
9.9970491e-06
9.9969375e-06
9.9968232e-06
9.996706e-06
9.9965856e-06
9.9964618e-06
9.9963343e-06
9.9962028e-06
9.9960668e-06
9.9959261e-06
9.9957802e-06
9.9956286e-06
9.9954709e-06
9.9953065e-06
9.995135e-06
9.9949557e-06
9.994768e-06
9.9945713e-06
9.994365e-06
9.9941485e-06
9.9939212e-06
9.9936827e-06
9.9934326e-06
9.9931704e-06
9.9928959e-06
9.9926088e-06
9.992309e-06
9.9919961e-06
9.9916701e-06
9.9913308e-06
9.990978e-06
9.9906115e-06
9.9902313e-06
9.9898374e-06
9.9894296e-06
9.9890081e-06
9.988573e-06
9.9881246e-06
9.9876631e-06
9.9871891e-06
9.9867031e-06
9.9862059e-06
9.9856981e-06
9.9851808e-06
9.9846548e-06
9.9841212e-06
9.983581e-06
9.9830353e-06
9.9824851e-06
9.9819315e-06
9.9813754e-06
9.9808177e-06
9.9802594e-06
9.9797012e-06
9.9791441e-06
9.9785892e-06
9.9780389e-06
9.9775003e-06
9.9769652e-06
9.9764342e-06
9.9759078e-06
9.9753868e-06
9.9748717e-06
9.9743632e-06
9.9738619e-06
9.9733684e-06
9.9728833e-06
9.9724073e-06
9.9719407e-06
9.9714842e-06
9.9710382e-06
9.9706039e-06
9.9701797e-06
9.9697946e-06
9.9693496e-06
1e-05
1e-05
9.9999999e-06
9.9999986e-06
9.9999965e-06
9.9999935e-06
9.9999897e-06
9.9999849e-06
9.9999793e-06
9.9999726e-06
9.999965e-06
9.9999563e-06
9.9999465e-06
9.9999356e-06
9.9999236e-06
9.9999104e-06
9.999896e-06
9.9998805e-06
9.9998637e-06
9.9998457e-06
9.9998264e-06
9.9998058e-06
9.999784e-06
9.9997608e-06
9.9997364e-06
9.9997106e-06
9.9996835e-06
9.9996551e-06
9.9996254e-06
9.9995943e-06
9.9995619e-06
9.9995282e-06
9.9994931e-06
9.9994567e-06
9.999419e-06
9.9993799e-06
9.9993394e-06
9.9992976e-06
9.9992544e-06
9.9992097e-06
9.9991637e-06
9.9991161e-06
9.9990671e-06
9.9990165e-06
9.9989642e-06
9.9989102e-06
9.9988545e-06
9.9987969e-06
9.9987372e-06
9.9986755e-06
9.9986116e-06
9.9985453e-06
9.9984764e-06
9.9984049e-06
9.9983306e-06
9.9982532e-06
9.9981725e-06
9.9980884e-06
9.9980006e-06
9.997909e-06
9.9978131e-06
9.9977128e-06
9.9976079e-06
9.9974979e-06
9.9973827e-06
9.9972619e-06
9.9971352e-06
9.9970024e-06
9.9968631e-06
9.996717e-06
9.9965639e-06
9.9964035e-06
9.9962356e-06
9.9960598e-06
9.995876e-06
9.995684e-06
9.9954835e-06
9.9952743e-06
9.9950564e-06
9.9948295e-06
9.9945935e-06
9.9943484e-06
9.9940942e-06
9.9938307e-06
9.9935582e-06
9.9932765e-06
9.9929859e-06
9.9926866e-06
9.9923787e-06
9.9920626e-06
9.9917386e-06
9.9914071e-06
9.9910685e-06
9.9907232e-06
9.9903719e-06
9.9900149e-06
9.989653e-06
9.9892865e-06
9.9889163e-06
9.988543e-06
9.9881673e-06
9.987791e-06
9.9874183e-06
9.9870449e-06
9.9866714e-06
9.9862983e-06
9.985926e-06
9.9855552e-06
9.9851862e-06
9.9848196e-06
9.9844558e-06
9.9840951e-06
9.983738e-06
9.9833847e-06
9.9830355e-06
9.9826909e-06
9.9823513e-06
9.9820166e-06
9.9817007e-06
9.9813663e-06
1.0000008e-05
1.0000023e-05
1.0000037e-05
1.0000052e-05
1.0000065e-05
1.0000078e-05
1.0000091e-05
1.0000103e-05
1.0000115e-05
1.0000126e-05
1.0000136e-05
1.0000146e-05
1.0000155e-05
1.0000164e-05
1.0000172e-05
1.0000179e-05
1.0000186e-05
1.0000192e-05
1.0000197e-05
1.0000201e-05
1.0000205e-05
1.0000208e-05
1.000021e-05
1.0000212e-05
1.0000212e-05
1.0000212e-05
1.0000211e-05
1.000021e-05
1.0000207e-05
1.0000204e-05
1.0000199e-05
1.0000194e-05
1.0000188e-05
1.0000181e-05
1.0000173e-05
1.0000165e-05
1.0000155e-05
1.0000144e-05
1.0000133e-05
1.000012e-05
1.0000107e-05
1.0000092e-05
1.0000077e-05
1.000006e-05
1.0000042e-05
1.0000023e-05
1.0000003e-05
9.9999813e-06
9.9999583e-06
9.9999339e-06
9.9999079e-06
9.9998803e-06
9.9998509e-06
9.9998198e-06
9.9997867e-06
9.9997517e-06
9.9997145e-06
9.999675e-06
9.9996332e-06
9.9995889e-06
9.999542e-06
9.9994923e-06
9.9994397e-06
9.9993841e-06
9.9993253e-06
9.9992631e-06
9.9991975e-06
9.9991283e-06
9.9990552e-06
9.9989782e-06
9.9988972e-06
9.9988119e-06
9.9987222e-06
9.9986279e-06
9.9985291e-06
9.9984254e-06
9.9983168e-06
9.9982032e-06
9.9980844e-06
9.9979604e-06
9.9978311e-06
9.9976964e-06
9.9975562e-06
9.9974106e-06
9.9972594e-06
9.9971027e-06
9.9969405e-06
9.9967728e-06
9.9965996e-06
9.9964211e-06
9.9962373e-06
9.9960484e-06
9.9958545e-06
9.9956557e-06
9.9954522e-06
9.9952443e-06
9.9950321e-06
9.994816e-06
9.9945961e-06
9.9943728e-06
9.9941464e-06
9.9939179e-06
9.9936892e-06
9.9934583e-06
9.9932256e-06
9.9929912e-06
9.9927555e-06
9.9925188e-06
9.9922813e-06
9.9920433e-06
9.9918051e-06
9.9915669e-06
9.991329e-06
9.9910915e-06
9.9908546e-06
9.9906187e-06
9.9903842e-06
9.9901513e-06
9.9899289e-06
9.9897007e-06
1.0000014e-05
1.0000041e-05
1.0000068e-05
1.0000094e-05
1.000012e-05
1.0000146e-05
1.0000172e-05
1.0000197e-05
1.0000221e-05
1.0000246e-05
1.0000269e-05
1.0000293e-05
1.0000316e-05
1.0000338e-05
1.0000361e-05
1.0000382e-05
1.0000403e-05
1.0000424e-05
1.0000444e-05
1.0000464e-05
1.0000483e-05
1.0000502e-05
1.000052e-05
1.0000538e-05
1.0000555e-05
1.0000572e-05
1.0000588e-05
1.0000604e-05
1.0000619e-05
1.0000633e-05
1.0000647e-05
1.0000661e-05
1.0000673e-05
1.0000685e-05
1.0000697e-05
1.0000708e-05
1.0000718e-05
1.0000728e-05
1.0000737e-05
1.0000745e-05
1.0000753e-05
1.000076e-05
1.0000766e-05
1.0000771e-05
1.0000775e-05
1.0000779e-05
1.0000782e-05
1.0000784e-05
1.0000784e-05
1.0000784e-05
1.0000783e-05
1.000078e-05
1.0000776e-05
1.0000771e-05
1.0000765e-05
1.0000757e-05
1.0000748e-05
1.0000737e-05
1.0000724e-05
1.0000709e-05
1.0000693e-05
1.0000675e-05
1.0000655e-05
1.0000632e-05
1.0000608e-05
1.0000581e-05
1.0000552e-05
1.000052e-05
1.0000486e-05
1.0000449e-05
1.0000409e-05
1.0000367e-05
1.0000322e-05
1.0000273e-05
1.0000222e-05
1.0000168e-05
1.000011e-05
1.0000049e-05
9.9999854e-06
9.999918e-06
9.9998473e-06
9.9997731e-06
9.9996955e-06
9.9996144e-06
9.9995298e-06
9.9994417e-06
9.9993502e-06
9.9992551e-06
9.9991566e-06
9.9990547e-06
9.9989495e-06
9.9988409e-06
9.998729e-06
9.998614e-06
9.9984959e-06
9.9983748e-06
9.9982507e-06
9.9981239e-06
9.9979945e-06
9.9978625e-06
9.9977283e-06
9.9975923e-06
9.9974557e-06
9.9973172e-06
9.997177e-06
9.9970353e-06
9.9968921e-06
9.9967476e-06
9.996602e-06
9.9964554e-06
9.9963079e-06
9.9961598e-06
9.9960111e-06
9.995862e-06
9.9957126e-06
9.995563e-06
9.9954136e-06
9.9952647e-06
9.9951229e-06
9.9949762e-06
1.0000019e-05
1.0000057e-05
1.0000094e-05
1.0000131e-05
1.0000168e-05
1.0000205e-05
1.0000241e-05
1.0000277e-05
1.0000313e-05
1.0000348e-05
1.0000384e-05
1.0000418e-05
1.0000453e-05
1.0000487e-05
1.0000521e-05
1.0000554e-05
1.0000587e-05
1.000062e-05
1.0000652e-05
1.0000684e-05
1.0000715e-05
1.0000747e-05
1.0000777e-05
1.0000808e-05
1.0000838e-05
1.0000867e-05
1.0000897e-05
1.0000925e-05
1.0000954e-05
1.0000982e-05
1.0001009e-05
1.0001036e-05
1.0001063e-05
1.0001089e-05
1.0001115e-05
1.000114e-05
1.0001165e-05
1.0001189e-05
1.0001213e-05
1.0001236e-05
1.0001259e-05
1.0001281e-05
1.0001303e-05
1.0001324e-05
1.0001345e-05
1.0001364e-05
1.0001383e-05
1.0001402e-05
1.0001419e-05
1.0001436e-05
1.0001452e-05
1.0001467e-05
1.0001481e-05
1.0001494e-05
1.0001506e-05
1.0001517e-05
1.0001527e-05
1.0001535e-05
1.0001543e-05
1.0001549e-05
1.0001553e-05
1.0001556e-05
1.0001557e-05
1.0001557e-05
1.0001555e-05
1.0001552e-05
1.0001547e-05
1.000154e-05
1.0001531e-05
1.0001519e-05
1.0001506e-05
1.0001491e-05
1.0001474e-05
1.0001455e-05
1.0001433e-05
1.0001409e-05
1.0001383e-05
1.0001354e-05
1.0001324e-05
1.000129e-05
1.0001255e-05
1.0001216e-05
1.0001176e-05
1.0001133e-05
1.0001087e-05
1.0001039e-05
1.0000989e-05
1.0000936e-05
1.0000881e-05
1.0000823e-05
1.0000763e-05
1.0000701e-05
1.0000637e-05
1.000057e-05
1.0000501e-05
1.000043e-05
1.0000357e-05
1.0000282e-05
1.0000206e-05
1.0000127e-05
1.0000047e-05
9.9999656e-06
9.9998839e-06
9.9998009e-06
9.9997166e-06
9.9996311e-06
9.9995446e-06
9.9994571e-06
9.9993687e-06
9.9992796e-06
9.9991897e-06
9.9990993e-06
9.9990083e-06
9.998917e-06
9.9988253e-06
9.9987334e-06
9.9986416e-06
9.99855e-06
9.9984642e-06
9.9983722e-06
1.0000024e-05
1.0000071e-05
1.0000118e-05
1.0000165e-05
1.0000212e-05
1.0000258e-05
1.0000304e-05
1.000035e-05
1.0000396e-05
1.0000441e-05
1.0000486e-05
1.0000531e-05
1.0000576e-05
1.000062e-05
1.0000664e-05
1.0000708e-05
1.0000751e-05
1.0000794e-05
1.0000837e-05
1.000088e-05
1.0000922e-05
1.0000964e-05
1.0001005e-05
1.0001047e-05
1.0001087e-05
1.0001128e-05
1.0001168e-05
1.0001208e-05
1.0001248e-05
1.0001287e-05
1.0001326e-05
1.0001365e-05
1.0001403e-05
1.0001441e-05
1.0001478e-05
1.0001515e-05
1.0001552e-05
1.0001588e-05
1.0001624e-05
1.000166e-05
1.0001695e-05
1.0001729e-05
1.0001763e-05
1.0001797e-05
1.000183e-05
1.0001862e-05
1.0001894e-05
1.0001926e-05
1.0001957e-05
1.0001987e-05
1.0002016e-05
1.0002045e-05
1.0002072e-05
1.0002099e-05
1.0002125e-05
1.0002151e-05
1.0002175e-05
1.0002198e-05
1.000222e-05
1.0002241e-05
1.0002261e-05
1.000228e-05
1.0002298e-05
1.0002314e-05
1.0002329e-05
1.0002342e-05
1.0002354e-05
1.0002365e-05
1.0002373e-05
1.0002381e-05
1.0002387e-05
1.0002391e-05
1.0002393e-05
1.0002393e-05
1.0002392e-05
1.000239e-05
1.0002385e-05
1.0002378e-05
1.000237e-05
1.0002359e-05
1.0002347e-05
1.0002333e-05
1.0002316e-05
1.0002298e-05
1.0002278e-05
1.0002256e-05
1.0002232e-05
1.0002207e-05
1.0002179e-05
1.0002149e-05
1.0002118e-05
1.0002085e-05
1.000205e-05
1.0002014e-05
1.0001976e-05
1.0001936e-05
1.0001894e-05
1.0001852e-05
1.0001807e-05
1.0001762e-05
1.0001715e-05
1.0001667e-05
1.0001619e-05
1.000157e-05
1.000152e-05
1.000147e-05
1.0001418e-05
1.0001366e-05
1.0001313e-05
1.0001259e-05
1.0001205e-05
1.0001151e-05
1.0001096e-05
1.0001041e-05
1.0000986e-05
1.0000931e-05
1.0000875e-05
1.000082e-05
1.0000771e-05
1.0000714e-05
1.0000028e-05
1.0000084e-05
1.000014e-05
1.0000196e-05
1.0000252e-05
1.0000307e-05
1.0000362e-05
1.0000417e-05
1.0000472e-05
1.0000527e-05
1.0000581e-05
1.0000635e-05
1.0000689e-05
1.0000743e-05
1.0000796e-05
1.000085e-05
1.0000903e-05
1.0000955e-05
1.0001008e-05
1.000106e-05
1.0001112e-05
1.0001163e-05
1.0001215e-05
1.0001266e-05
1.0001317e-05
1.0001367e-05
1.0001418e-05
1.0001468e-05
1.0001517e-05
1.0001567e-05
1.0001616e-05
1.0001664e-05
1.0001713e-05
1.0001761e-05
1.0001809e-05
1.0001857e-05
1.0001904e-05
1.000195e-05
1.0001997e-05
1.0002043e-05
1.0002089e-05
1.0002134e-05
1.0002179e-05
1.0002223e-05
1.0002267e-05
1.0002311e-05
1.0002354e-05
1.0002396e-05
1.0002438e-05
1.000248e-05
1.000252e-05
1.000256e-05
1.00026e-05
1.0002638e-05
1.0002676e-05
1.0002713e-05
1.0002749e-05
1.0002785e-05
1.0002819e-05
1.0002853e-05
1.0002885e-05
1.0002917e-05
1.0002947e-05
1.0002976e-05
1.0003004e-05
1.0003031e-05
1.0003057e-05
1.0003081e-05
1.0003104e-05
1.0003126e-05
1.0003146e-05
1.0003165e-05
1.0003182e-05
1.0003198e-05
1.0003213e-05
1.0003225e-05
1.0003237e-05
1.0003246e-05
1.0003255e-05
1.0003261e-05
1.0003266e-05
1.0003269e-05
1.000327e-05
1.000327e-05
1.0003269e-05
1.0003265e-05
1.000326e-05
1.0003254e-05
1.0003245e-05
1.0003236e-05
1.0003224e-05
1.0003211e-05
1.0003197e-05
1.0003181e-05
1.0003164e-05
1.0003145e-05
1.0003125e-05
1.0003104e-05
1.0003082e-05
1.0003058e-05
1.0003033e-05
1.0003008e-05
1.0002982e-05
1.0002956e-05
1.0002929e-05
1.0002901e-05
1.0002872e-05
1.0002843e-05
1.0002813e-05
1.0002783e-05
1.0002752e-05
1.0002721e-05
1.0002689e-05
1.0002658e-05
1.0002626e-05
1.0002594e-05
1.0002563e-05
1.0002531e-05
1.0002505e-05
1.000247e-05
1.0000032e-05
1.0000097e-05
1.0000161e-05
1.0000226e-05
1.000029e-05
1.0000354e-05
1.0000417e-05
1.0000481e-05
1.0000544e-05
1.0000608e-05
1.0000671e-05
1.0000734e-05
1.0000796e-05
1.0000859e-05
1.0000921e-05
1.0000983e-05
1.0001045e-05
1.0001107e-05
1.0001168e-05
1.000123e-05
1.0001291e-05
1.0001351e-05
1.0001412e-05
1.0001472e-05
1.0001532e-05
1.0001592e-05
1.0001652e-05
1.0001711e-05
1.000177e-05
1.0001829e-05
1.0001887e-05
1.0001945e-05
1.0002003e-05
1.0002061e-05
1.0002119e-05
1.0002176e-05
1.0002232e-05
1.0002289e-05
1.0002345e-05
1.0002401e-05
1.0002456e-05
1.0002511e-05
1.0002566e-05
1.000262e-05
1.0002674e-05
1.0002728e-05
1.0002781e-05
1.0002833e-05
1.0002885e-05
1.0002937e-05
1.0002987e-05
1.0003038e-05
1.0003087e-05
1.0003136e-05
1.0003184e-05
1.0003232e-05
1.0003279e-05
1.0003325e-05
1.000337e-05
1.0003414e-05
1.0003457e-05
1.00035e-05
1.0003541e-05
1.0003582e-05
1.0003621e-05
1.0003659e-05
1.0003696e-05
1.0003732e-05
1.0003767e-05
1.0003801e-05
1.0003833e-05
1.0003864e-05
1.0003894e-05
1.0003922e-05
1.0003949e-05
1.0003975e-05
1.0003999e-05
1.0004022e-05
1.0004043e-05
1.0004063e-05
1.0004082e-05
1.0004099e-05
1.0004114e-05
1.0004128e-05
1.0004141e-05
1.0004152e-05
1.0004161e-05
1.0004169e-05
1.0004176e-05
1.0004181e-05
1.0004185e-05
1.0004187e-05
1.0004188e-05
1.0004187e-05
1.0004186e-05
1.0004183e-05
1.0004179e-05
1.0004174e-05
1.0004167e-05
1.0004159e-05
1.0004151e-05
1.0004141e-05
1.0004132e-05
1.0004122e-05
1.000411e-05
1.0004098e-05
1.0004086e-05
1.0004073e-05
1.0004059e-05
1.0004045e-05
1.000403e-05
1.0004015e-05
1.0004e-05
1.0003984e-05
1.0003968e-05
1.0003952e-05
1.0003937e-05
1.0003921e-05
1.000391e-05
1.000389e-05
1.0000036e-05
1.0000109e-05
1.0000181e-05
1.0000254e-05
1.0000326e-05
1.0000398e-05
1.000047e-05
1.0000542e-05
1.0000614e-05
1.0000685e-05
1.0000756e-05
1.0000828e-05
1.0000899e-05
1.000097e-05
1.000104e-05
1.0001111e-05
1.0001181e-05
1.0001252e-05
1.0001322e-05
1.0001391e-05
1.0001461e-05
1.0001531e-05
1.00016e-05
1.0001669e-05
1.0001738e-05
1.0001806e-05
1.0001875e-05
1.0001943e-05
1.0002011e-05
1.0002078e-05
1.0002146e-05
1.0002213e-05
1.000228e-05
1.0002347e-05
1.0002413e-05
1.0002479e-05
1.0002545e-05
1.0002611e-05
1.0002676e-05
1.0002741e-05
1.0002805e-05
1.000287e-05
1.0002934e-05
1.0002997e-05
1.000306e-05
1.0003123e-05
1.0003185e-05
1.0003247e-05
1.0003308e-05
1.0003369e-05
1.0003429e-05
1.0003489e-05
1.0003548e-05
1.0003606e-05
1.0003664e-05
1.0003721e-05
1.0003777e-05
1.0003833e-05
1.0003888e-05
1.0003942e-05
1.0003995e-05
1.0004047e-05
1.0004099e-05
1.0004149e-05
1.0004199e-05
1.0004247e-05
1.0004294e-05
1.0004341e-05
1.0004386e-05
1.000443e-05
1.0004473e-05
1.0004515e-05
1.0004555e-05
1.0004594e-05
1.0004632e-05
1.0004669e-05
1.0004704e-05
1.0004738e-05
1.0004771e-05
1.0004802e-05
1.0004832e-05
1.000486e-05
1.0004887e-05
1.0004913e-05
1.0004937e-05
1.000496e-05
1.0004981e-05
1.0005001e-05
1.000502e-05
1.0005037e-05
1.0005053e-05
1.0005068e-05
1.0005081e-05
1.0005093e-05
1.0005104e-05
1.0005113e-05
1.0005121e-05
1.0005128e-05
1.0005134e-05
1.0005139e-05
1.0005143e-05
1.0005146e-05
1.0005149e-05
1.000515e-05
1.0005151e-05
1.0005152e-05
1.0005151e-05
1.000515e-05
1.0005148e-05
1.0005146e-05
1.0005143e-05
1.000514e-05
1.0005136e-05
1.0005132e-05
1.0005127e-05
1.0005123e-05
1.0005118e-05
1.0005114e-05
1.0005112e-05
1.0005104e-05
1.000004e-05
1.000012e-05
1.0000201e-05
1.0000281e-05
1.0000361e-05
1.0000441e-05
1.0000521e-05
1.00006e-05
1.000068e-05
1.000076e-05
1.0000839e-05
1.0000918e-05
1.0000997e-05
1.0001076e-05
1.0001155e-05
1.0001234e-05
1.0001313e-05
1.0001391e-05
1.0001469e-05
1.0001547e-05
1.0001625e-05
1.0001703e-05
1.0001781e-05
1.0001858e-05
1.0001935e-05
1.0002012e-05
1.0002089e-05
1.0002166e-05
1.0002242e-05
1.0002318e-05
1.0002394e-05
1.000247e-05
1.0002546e-05
1.0002621e-05
1.0002696e-05
1.0002771e-05
1.0002845e-05
1.000292e-05
1.0002994e-05
1.0003067e-05
1.0003141e-05
1.0003214e-05
1.0003286e-05
1.0003359e-05
1.000343e-05
1.0003502e-05
1.0003573e-05
1.0003643e-05
1.0003714e-05
1.0003783e-05
1.0003852e-05
1.0003921e-05
1.0003989e-05
1.0004056e-05
1.0004123e-05
1.0004189e-05
1.0004254e-05
1.0004319e-05
1.0004383e-05
1.0004446e-05
1.0004508e-05
1.000457e-05
1.000463e-05
1.000469e-05
1.0004748e-05
1.0004806e-05
1.0004863e-05
1.0004919e-05
1.0004973e-05
1.0005027e-05
1.0005079e-05
1.000513e-05
1.000518e-05
1.0005229e-05
1.0005277e-05
1.0005323e-05
1.0005368e-05
1.0005412e-05
1.0005455e-05
1.0005496e-05
1.0005536e-05
1.0005574e-05
1.0005611e-05
1.0005647e-05
1.0005681e-05
1.0005714e-05
1.0005746e-05
1.0005776e-05
1.0005805e-05
1.0005833e-05
1.0005859e-05
1.0005884e-05
1.0005907e-05
1.000593e-05
1.000595e-05
1.000597e-05
1.0005988e-05
1.0006006e-05
1.0006022e-05
1.0006036e-05
1.000605e-05
1.0006063e-05
1.0006076e-05
1.0006087e-05
1.0006098e-05
1.0006108e-05
1.0006117e-05
1.0006125e-05
1.0006133e-05
1.0006139e-05
1.0006146e-05
1.0006151e-05
1.0006156e-05
1.0006161e-05
1.0006165e-05
1.0006169e-05
1.0006173e-05
1.0006176e-05
1.0006184e-05
1.0006181e-05
1.0000044e-05
1.0000132e-05
1.0000219e-05
1.0000307e-05
1.0000395e-05
1.0000482e-05
1.000057e-05
1.0000657e-05
1.0000745e-05
1.0000832e-05
1.0000919e-05
1.0001006e-05
1.0001093e-05
1.000118e-05
1.0001267e-05
1.0001353e-05
1.000144e-05
1.0001526e-05
1.0001612e-05
1.0001698e-05
1.0001784e-05
1.000187e-05
1.0001956e-05
1.0002041e-05
1.0002127e-05
1.0002212e-05
1.0002297e-05
1.0002382e-05
1.0002466e-05
1.0002551e-05
1.0002635e-05
1.0002719e-05
1.0002803e-05
1.0002887e-05
1.000297e-05
1.0003053e-05
1.0003136e-05
1.0003219e-05
1.0003301e-05
1.0003383e-05
1.0003465e-05
1.0003546e-05
1.0003627e-05
1.0003708e-05
1.0003788e-05
1.0003868e-05
1.0003948e-05
1.0004027e-05
1.0004105e-05
1.0004184e-05
1.0004261e-05
1.0004338e-05
1.0004415e-05
1.000449e-05
1.0004566e-05
1.000464e-05
1.0004714e-05
1.0004787e-05
1.000486e-05
1.0004931e-05
1.0005002e-05
1.0005072e-05
1.0005141e-05
1.000521e-05
1.0005277e-05
1.0005343e-05
1.0005409e-05
1.0005473e-05
1.0005537e-05
1.0005599e-05
1.000566e-05
1.000572e-05
1.0005779e-05
1.0005837e-05
1.0005893e-05
1.0005948e-05
1.0006002e-05
1.0006055e-05
1.0006106e-05
1.0006157e-05
1.0006205e-05
1.0006253e-05
1.0006299e-05
1.0006344e-05
1.0006387e-05
1.0006429e-05
1.000647e-05
1.0006509e-05
1.0006547e-05
1.0006583e-05
1.0006618e-05
1.0006652e-05
1.0006684e-05
1.0006715e-05
1.0006745e-05
1.0006773e-05
1.00068e-05
1.0006826e-05
1.0006851e-05
1.0006874e-05
1.0006896e-05
1.0006917e-05
1.0006938e-05
1.0006958e-05
1.0006976e-05
1.0006994e-05
1.0007011e-05
1.0007026e-05
1.0007041e-05
1.0007055e-05
1.0007069e-05
1.0007081e-05
1.0007093e-05
1.0007104e-05
1.0007115e-05
1.0007125e-05
1.0007135e-05
1.0007145e-05
1.0007159e-05
1.0007159e-05
1.0000048e-05
1.0000143e-05
1.0000238e-05
1.0000333e-05
1.0000428e-05
1.0000523e-05
1.0000618e-05
1.0000713e-05
1.0000807e-05
1.0000902e-05
1.0000997e-05
1.0001092e-05
1.0001186e-05
1.0001281e-05
1.0001375e-05
1.0001469e-05
1.0001563e-05
1.0001658e-05
1.0001752e-05
1.0001845e-05
1.0001939e-05
1.0002033e-05
1.0002126e-05
1.000222e-05
1.0002313e-05
1.0002406e-05
1.0002499e-05
1.0002592e-05
1.0002685e-05
1.0002777e-05
1.0002869e-05
1.0002962e-05
1.0003053e-05
1.0003145e-05
1.0003237e-05
1.0003328e-05
1.0003419e-05
1.000351e-05
1.00036e-05
1.000369e-05
1.000378e-05
1.000387e-05
1.0003959e-05
1.0004048e-05
1.0004136e-05
1.0004224e-05
1.0004312e-05
1.0004399e-05
1.0004486e-05
1.0004572e-05
1.0004658e-05
1.0004743e-05
1.0004828e-05
1.0004912e-05
1.0004995e-05
1.0005078e-05
1.000516e-05
1.0005242e-05
1.0005322e-05
1.0005402e-05
1.0005481e-05
1.0005559e-05
1.0005637e-05
1.0005713e-05
1.0005789e-05
1.0005863e-05
1.0005937e-05
1.0006009e-05
1.0006081e-05
1.0006151e-05
1.0006221e-05
1.0006289e-05
1.0006356e-05
1.0006422e-05
1.0006487e-05
1.000655e-05
1.0006612e-05
1.0006673e-05
1.0006733e-05
1.0006791e-05
1.0006848e-05
1.0006904e-05
1.0006958e-05
1.0007011e-05
1.0007062e-05
1.0007112e-05
1.0007161e-05
1.0007208e-05
1.0007254e-05
1.0007299e-05
1.0007341e-05
1.0007383e-05
1.0007423e-05
1.0007462e-05
1.0007499e-05
1.0007535e-05
1.000757e-05
1.0007603e-05
1.0007634e-05
1.0007665e-05
1.0007694e-05
1.0007722e-05
1.000775e-05
1.0007776e-05
1.0007801e-05
1.0007826e-05
1.0007849e-05
1.000787e-05
1.0007891e-05
1.0007911e-05
1.000793e-05
1.0007948e-05
1.0007965e-05
1.0007982e-05
1.0007997e-05
1.0008012e-05
1.0008026e-05
1.000804e-05
1.0008059e-05
1.0008061e-05
1.0000051e-05
1.0000153e-05
1.0000256e-05
1.0000358e-05
1.000046e-05
1.0000562e-05
1.0000664e-05
1.0000767e-05
1.0000869e-05
1.0000971e-05
1.0001073e-05
1.0001175e-05
1.0001277e-05
1.0001379e-05
1.0001481e-05
1.0001582e-05
1.0001684e-05
1.0001786e-05
1.0001887e-05
1.0001989e-05
1.000209e-05
1.0002192e-05
1.0002293e-05
1.0002394e-05
1.0002495e-05
1.0002596e-05
1.0002697e-05
1.0002797e-05
1.0002898e-05
1.0002998e-05
1.0003098e-05
1.0003198e-05
1.0003298e-05
1.0003397e-05
1.0003497e-05
1.0003596e-05
1.0003695e-05
1.0003793e-05
1.0003892e-05
1.000399e-05
1.0004088e-05
1.0004185e-05
1.0004283e-05
1.0004379e-05
1.0004476e-05
1.0004572e-05
1.0004667e-05
1.0004763e-05
1.0004857e-05
1.0004951e-05
1.0005045e-05
1.0005138e-05
1.0005231e-05
1.0005323e-05
1.0005414e-05
1.0005505e-05
1.0005595e-05
1.0005684e-05
1.0005772e-05
1.000586e-05
1.0005947e-05
1.0006033e-05
1.0006118e-05
1.0006203e-05
1.0006286e-05
1.0006368e-05
1.000645e-05
1.000653e-05
1.0006609e-05
1.0006688e-05
1.0006765e-05
1.0006841e-05
1.0006915e-05
1.0006989e-05
1.0007061e-05
1.0007132e-05
1.0007202e-05
1.0007271e-05
1.0007338e-05
1.0007404e-05
1.0007468e-05
1.0007531e-05
1.0007593e-05
1.0007653e-05
1.0007712e-05
1.000777e-05
1.0007826e-05
1.000788e-05
1.0007933e-05
1.0007985e-05
1.0008035e-05
1.0008083e-05
1.000813e-05
1.0008176e-05
1.000822e-05
1.0008262e-05
1.0008303e-05
1.0008343e-05
1.0008381e-05
1.0008417e-05
1.0008453e-05
1.0008487e-05
1.000852e-05
1.0008552e-05
1.0008583e-05
1.0008612e-05
1.000864e-05
1.0008667e-05
1.0008693e-05
1.0008717e-05
1.0008741e-05
1.0008763e-05
1.0008784e-05
1.0008804e-05
1.0008823e-05
1.0008842e-05
1.0008859e-05
1.0008876e-05
1.0008897e-05
1.0008899e-05
1.0000055e-05
1.0000164e-05
1.0000273e-05
1.0000382e-05
1.0000491e-05
1.0000601e-05
1.000071e-05
1.0000819e-05
1.0000928e-05
1.0001038e-05
1.0001147e-05
1.0001256e-05
1.0001365e-05
1.0001475e-05
1.0001584e-05
1.0001693e-05
1.0001802e-05
1.0001911e-05
1.000202e-05
1.0002129e-05
1.0002238e-05
1.0002347e-05
1.0002455e-05
1.0002564e-05
1.0002673e-05
1.0002781e-05
1.0002889e-05
1.0002998e-05
1.0003106e-05
1.0003214e-05
1.0003321e-05
1.0003429e-05
1.0003537e-05
1.0003644e-05
1.0003751e-05
1.0003858e-05
1.0003964e-05
1.0004071e-05
1.0004177e-05
1.0004283e-05
1.0004388e-05
1.0004494e-05
1.0004599e-05
1.0004703e-05
1.0004807e-05
1.0004911e-05
1.0005015e-05
1.0005117e-05
1.000522e-05
1.0005322e-05
1.0005423e-05
1.0005524e-05
1.0005624e-05
1.0005724e-05
1.0005823e-05
1.0005921e-05
1.0006019e-05
1.0006116e-05
1.0006212e-05
1.0006307e-05
1.0006402e-05
1.0006495e-05
1.0006588e-05
1.000668e-05
1.0006771e-05
1.000686e-05
1.0006949e-05
1.0007037e-05
1.0007124e-05
1.0007209e-05
1.0007294e-05
1.0007377e-05
1.0007459e-05
1.000754e-05
1.0007619e-05
1.0007698e-05
1.0007775e-05
1.000785e-05
1.0007925e-05
1.0007997e-05
1.0008069e-05
1.0008139e-05
1.0008207e-05
1.0008275e-05
1.000834e-05
1.0008404e-05
1.0008467e-05
1.0008528e-05
1.0008587e-05
1.0008645e-05
1.0008702e-05
1.0008756e-05
1.000881e-05
1.0008861e-05
1.0008911e-05
1.0008959e-05
1.0009006e-05
1.0009051e-05
1.0009095e-05
1.0009137e-05
1.0009177e-05
1.0009216e-05
1.0009254e-05
1.0009291e-05
1.0009326e-05
1.000936e-05
1.0009392e-05
1.0009423e-05
1.0009452e-05
1.000948e-05
1.0009507e-05
1.0009532e-05
1.0009556e-05
1.0009579e-05
1.0009601e-05
1.0009621e-05
1.000964e-05
1.0009659e-05
1.0009682e-05
1.0009682e-05
1.0000058e-05
1.0000174e-05
1.000029e-05
1.0000406e-05
1.0000522e-05
1.0000638e-05
1.0000754e-05
1.0000871e-05
1.0000987e-05
1.0001103e-05
1.0001219e-05
1.0001336e-05
1.0001452e-05
1.0001568e-05
1.0001685e-05
1.0001801e-05
1.0001917e-05
1.0002034e-05
1.000215e-05
1.0002266e-05
1.0002382e-05
1.0002498e-05
1.0002614e-05
1.000273e-05
1.0002846e-05
1.0002962e-05
1.0003078e-05
1.0003194e-05
1.0003309e-05
1.0003425e-05
1.000354e-05
1.0003655e-05
1.000377e-05
1.0003885e-05
1.0004e-05
1.0004114e-05
1.0004228e-05
1.0004342e-05
1.0004456e-05
1.0004569e-05
1.0004683e-05
1.0004795e-05
1.0004908e-05
1.000502e-05
1.0005132e-05
1.0005243e-05
1.0005354e-05
1.0005465e-05
1.0005575e-05
1.0005684e-05
1.0005793e-05
1.0005901e-05
1.0006009e-05
1.0006116e-05
1.0006223e-05
1.0006328e-05
1.0006433e-05
1.0006538e-05