/*--------------------------------*- C++ -*----------------------------------*\
| =========                 |                                                 |
| \\      /  F ield         | OpenFOAM: The Open Source CFD Toolbox           |
|  \\    /   O peration     | Version:  v2012                                 |
|   \\  /    A nd           | Website:  www.openfoam.com                      |
|    \\/     M anipulation  |                                                 |
\*---------------------------------------------------------------------------*/
FoamFile
{
    version     2.0;
    format      ascii;
    class       volScalarField;
    location    "100";
    object      p;
}
// * * * * * * * * * * * * * * * * * * * * * * * * * * * * * * * * * * * * * //

dimensions      [0 2 -2 0 0 0 0];


internalField   nonuniform List<scalar> 
123200
(
2.8743252e-05
2.874193e-05
2.8738516e-05
2.8732736e-05
2.8724623e-05
2.8714255e-05
2.870166e-05
2.8686835e-05
2.8669776e-05
2.8650484e-05
2.8628965e-05
2.8605222e-05
2.8579259e-05
2.855108e-05
2.8520689e-05
2.848809e-05
2.8453287e-05
2.8416285e-05
2.8377089e-05
2.8335703e-05
2.8292133e-05
2.8246385e-05
2.8198463e-05
2.8148375e-05
2.8096126e-05
2.8041723e-05
2.7985172e-05
2.7926482e-05
2.7865658e-05
2.780271e-05
2.7737645e-05
2.7670471e-05
2.7601198e-05
2.7529833e-05
2.7456388e-05
2.7380871e-05
2.7303292e-05
2.7223662e-05
2.7141991e-05
2.7058292e-05
2.6972575e-05
2.6884852e-05
2.6795136e-05
2.6703439e-05
2.6609774e-05
2.6514155e-05
2.6416596e-05
2.6317111e-05
2.6215715e-05
2.6112423e-05
2.600725e-05
2.5900213e-05
2.5791328e-05
2.5680612e-05
2.5568082e-05
2.5453756e-05
2.5337653e-05
2.521979e-05
2.5100188e-05
2.4978867e-05
2.4855845e-05
2.4731144e-05
2.4604785e-05
2.4476789e-05
2.4347179e-05
2.4215978e-05
2.4083207e-05
2.3948892e-05
2.3813055e-05
2.3675723e-05
2.3536918e-05
2.3396669e-05
2.3254999e-05
2.3111937e-05
2.2967508e-05
2.2821742e-05
2.2674665e-05
2.2526307e-05
2.2376697e-05
2.2225864e-05
2.2073838e-05
2.1920651e-05
2.1766333e-05
2.1610916e-05
2.1454431e-05
2.1296913e-05
2.1138393e-05
2.0978906e-05
2.0818485e-05
2.0657164e-05
2.049498e-05
2.0331966e-05
2.016816e-05
2.0003596e-05
1.9838313e-05
1.9672346e-05
1.9505734e-05
1.9338514e-05
1.9170725e-05
1.9002405e-05
1.8833594e-05
1.866433e-05
1.8494656e-05
1.832461e-05
1.8154233e-05
1.7983565e-05
1.7812647e-05
1.7641519e-05
1.7470223e-05
1.7298801e-05
1.7127293e-05
1.6955743e-05
1.6784193e-05
1.6612684e-05
1.6441259e-05
1.6269962e-05
1.6098832e-05
1.5927917e-05
1.5757249e-05
1.5586914e-05
2.8794822e-05
2.8793232e-05
2.8789573e-05
2.8783616e-05
2.877536e-05
2.8764859e-05
2.8752135e-05
2.8737187e-05
2.8720011e-05
2.8700605e-05
2.8678973e-05
2.8655117e-05
2.8629041e-05
2.8600747e-05
2.8570238e-05
2.8537518e-05
2.850259e-05
2.8465459e-05
2.8426129e-05
2.8384604e-05
2.834089e-05
2.8294991e-05
2.8246913e-05
2.8196661e-05
2.8144243e-05
2.8089663e-05
2.803293e-05
2.7974049e-05
2.7913028e-05
2.7849874e-05
2.7784596e-05
2.7717202e-05
2.76477e-05
2.75761e-05
2.7502409e-05
2.7426639e-05
2.7348799e-05
2.7268899e-05
2.718695e-05
2.7102964e-05
2.701695e-05
2.6928922e-05
2.6838891e-05
2.6746871e-05
2.6652873e-05
2.6556912e-05
2.6459001e-05
2.6359154e-05
2.6257386e-05
2.6153713e-05
2.6048148e-05
2.594071e-05
2.5831413e-05
2.5720275e-05
2.5607313e-05
2.5492545e-05
2.5375988e-05
2.5257662e-05
2.5137586e-05
2.5015779e-05
2.4892261e-05
2.4767054e-05
2.4640177e-05
2.4511654e-05
2.4381504e-05
2.4249753e-05
2.4116421e-05
2.3981534e-05
2.3845114e-05
2.3707187e-05
2.3567778e-05
2.3426912e-05
2.3284615e-05
2.3140914e-05
2.2995837e-05
2.2849411e-05
2.2701663e-05
2.2552624e-05
2.2402321e-05
2.2250786e-05
2.2098047e-05
2.1944136e-05
2.1789083e-05
2.1632922e-05
2.1475683e-05
2.1317401e-05
2.1158107e-05
2.0997835e-05
2.0836621e-05
2.0674498e-05
2.0511501e-05
2.0347667e-05
2.0183031e-05
2.001763e-05
1.98515e-05
1.9684679e-05
1.9517205e-05
1.9349115e-05
1.9180449e-05
1.9011245e-05
1.8841542e-05
1.8671382e-05
1.8500804e-05
1.8329849e-05
1.8158557e-05
1.798697e-05
1.7815128e-05
1.7643073e-05
1.7470845e-05
1.7298488e-05
1.7126044e-05
1.6953556e-05
1.6781066e-05
1.6608618e-05
1.6436254e-05
1.6264019e-05
1.6091956e-05
1.5920114e-05
1.5748517e-05
1.5577304e-05
2.8892352e-05
2.8890715e-05
2.8886984e-05
2.8880948e-05
2.8872612e-05
2.8862025e-05
2.8849206e-05
2.8834154e-05
2.8816864e-05
2.8797334e-05
2.8775567e-05
2.8751566e-05
2.8725334e-05
2.8696871e-05
2.8666182e-05
2.863327e-05
2.8598137e-05
2.8560789e-05
2.8521228e-05
2.847946e-05
2.8435489e-05
2.838932e-05
2.8340958e-05
2.8290409e-05
2.8237678e-05
2.8182772e-05
2.8125698e-05
2.8066461e-05
2.800507e-05
2.7941531e-05
2.7875852e-05
2.7808042e-05
2.7738108e-05
2.7666059e-05
2.7591905e-05
2.7515654e-05
2.7437317e-05
2.7356903e-05
2.7274423e-05
2.7189888e-05
2.7103309e-05
2.7014697e-05
2.6924065e-05
2.6831425e-05
2.673679e-05
2.6640173e-05
2.6541587e-05
2.6441047e-05
2.6338566e-05
2.6234161e-05
2.6127845e-05
2.6019636e-05
2.5909548e-05
2.5797599e-05
2.5683806e-05
2.5568187e-05
2.5450759e-05
2.533154e-05
2.5210551e-05
2.508781e-05
2.4963338e-05
2.4837155e-05
2.4709281e-05
2.4579739e-05
2.444855e-05
2.4315737e-05
2.4181323e-05
2.4045331e-05
2.3907786e-05
2.3768712e-05
2.3628134e-05
2.3486077e-05
2.3342569e-05
2.3197635e-05
2.3051303e-05
2.2903601e-05
2.2754556e-05
2.2604198e-05
2.2452556e-05
2.229966e-05
2.214554e-05
2.1990227e-05
2.1833753e-05
2.167615e-05
2.1517449e-05
2.1357685e-05
2.119689e-05
2.1035099e-05
2.0872345e-05
2.0708665e-05
2.0544093e-05
2.0378665e-05
2.0212419e-05
2.004539e-05
1.9877616e-05
1.9709135e-05
1.9539985e-05
1.9370205e-05
1.9199833e-05
1.902891e-05
1.8857474e-05
1.8685567e-05
1.851323e-05
1.8340504e-05
1.8167431e-05
1.7994051e-05
1.7820407e-05
1.7646539e-05
1.7472491e-05
1.7298305e-05
1.7124024e-05
1.6949692e-05
1.6775352e-05
1.6601047e-05
1.6426822e-05
1.6252721e-05
1.6078784e-05
1.590507e-05
1.5731581e-05
1.5558554e-05
2.9034357e-05
2.903271e-05
2.902895e-05
2.9022863e-05
2.9014454e-05
2.9003772e-05
2.899084e-05
2.8975656e-05
2.8958214e-05
2.8938514e-05
2.891656e-05
2.8892353e-05
2.8865895e-05
2.883719e-05
2.880624e-05
2.8773049e-05
2.8737618e-05
2.8699953e-05
2.8660058e-05
2.8617935e-05
2.857359e-05
2.8527027e-05
2.8478252e-05
2.842727e-05
2.8374086e-05
2.8318706e-05
2.8261136e-05
2.8201384e-05
2.8139454e-05
2.8075356e-05
2.8009095e-05
2.7940681e-05
2.787012e-05
2.7797421e-05
2.7722594e-05
2.7645646e-05
2.7566588e-05
2.7485429e-05
2.7402179e-05
2.7316849e-05
2.7229449e-05
2.7139992e-05
2.7048488e-05
2.695495e-05
2.6859391e-05
2.6761822e-05
2.6662257e-05
2.6560711e-05
2.6457196e-05
2.6351728e-05
2.6244322e-05
2.6134993e-05
2.6023757e-05
2.5910631e-05
2.5795631e-05
2.5678775e-05
2.556008e-05
2.5439565e-05
2.5317248e-05
2.519315e-05
2.5067289e-05
2.4939686e-05
2.4810361e-05
2.4679337e-05
2.4546635e-05
2.4412277e-05
2.4276287e-05
2.4138687e-05
2.3999503e-05
2.3858757e-05
2.3716476e-05
2.3572685e-05
2.342741e-05
2.3280678e-05
2.3132516e-05
2.2982952e-05
2.2832015e-05
2.2679733e-05
2.2526137e-05
2.2371255e-05
2.2215119e-05
2.2057759e-05
2.1899209e-05
2.1739498e-05
2.1578662e-05
2.1416733e-05
2.1253744e-05
2.108973e-05
2.0924727e-05
2.075877e-05
2.0591894e-05
2.0424136e-05
2.0255533e-05
2.0086123e-05
1.9915943e-05
1.9745032e-05
1.9573429e-05
1.9401173e-05
1.9228304e-05
1.9054862e-05
1.8880888e-05
1.8706423e-05
1.853151e-05
1.8356189e-05
1.8180505e-05
1.8004498e-05
1.7828212e-05
1.7651688e-05
1.7474972e-05
1.7298105e-05
1.7121133e-05
1.69441e-05
1.6767051e-05
1.659003e-05
1.6413081e-05
1.6236253e-05
1.6059583e-05
1.5883143e-05
1.5706904e-05
1.553125e-05
2.9218384e-05
2.9216718e-05
2.9212916e-05
2.920676e-05
2.9198257e-05
2.918746e-05
2.9174389e-05
2.9159042e-05
2.9141416e-05
2.9121509e-05
2.9099323e-05
2.9074863e-05
2.9048129e-05
2.9019124e-05
2.898785e-05
2.8954311e-05
2.891851e-05
2.8880449e-05
2.8840133e-05
2.8797566e-05
2.8752751e-05
2.8705694e-05
2.8656398e-05
2.8604868e-05
2.8551111e-05
2.8495131e-05
2.8436934e-05
2.8376527e-05
2.8313915e-05
2.8249106e-05
2.8182106e-05
2.8112923e-05
2.8041564e-05
2.7968038e-05
2.7892352e-05
2.7814515e-05
2.7734537e-05
2.7652426e-05
2.7568193e-05
2.7481847e-05
2.7393399e-05
2.7302859e-05
2.721024e-05
2.7115552e-05
2.7018807e-05
2.6920019e-05
2.6819199e-05
2.6716362e-05
2.661152e-05
2.6504688e-05
2.6395882e-05
2.6285115e-05
2.6172403e-05
2.6057762e-05
2.594121e-05
2.5822762e-05
2.5702437e-05
2.5580252e-05
2.5456225e-05
2.5330377e-05
2.5202726e-05
2.5073292e-05
2.4942097e-05
2.480916e-05
2.4674504e-05
2.4538152e-05
2.4400125e-05
2.4260448e-05
2.4119143e-05
2.3976237e-05
2.3831753e-05
2.3685717e-05
2.3538155e-05
2.3389095e-05
2.3238564e-05
2.3086589e-05
2.2933199e-05
2.2778424e-05
2.2622292e-05
2.2464835e-05
2.2306083e-05
2.2146068e-05
2.1984821e-05
2.1822376e-05
2.1658765e-05
2.1494022e-05
2.1328183e-05
2.1161281e-05
2.0993352e-05
2.0824433e-05
2.0654559e-05
2.0483769e-05
2.03121e-05
2.0139589e-05
1.9966276e-05
1.9792201e-05
1.9617402e-05
1.944192e-05
1.9265796e-05
1.9089072e-05
1.8911788e-05
1.8733987e-05
1.8555712e-05
1.8377006e-05
1.8197913e-05
1.8018476e-05
1.783874e-05
1.7658747e-05
1.7478544e-05
1.7298174e-05
1.7117685e-05
1.6937121e-05
1.6756527e-05
1.6575952e-05
1.639544e-05
1.6215041e-05
1.6034791e-05
1.5854777e-05
1.5674933e-05
1.549583e-05
2.944229e-05
2.9440605e-05
2.9436757e-05
2.9430528e-05
2.9421924e-05
2.9410997e-05
2.9397769e-05
2.9382238e-05
2.9364399e-05
2.9344252e-05
2.9321799e-05
2.9297043e-05
2.9269985e-05
2.9240628e-05
2.9208973e-05
2.9175025e-05
2.9138785e-05
2.9100256e-05
2.9059443e-05
2.9016348e-05
2.8970975e-05
2.8923329e-05
2.8873413e-05
2.8821233e-05
2.8766793e-05
2.8710097e-05
2.8651153e-05
2.8589964e-05
2.8526538e-05
2.846088e-05
2.8392997e-05
2.8322895e-05
2.8250582e-05
2.8176065e-05
2.8099353e-05
2.8020452e-05
2.7939372e-05
2.7856121e-05
2.7770709e-05
2.7683145e-05
2.7593439e-05
2.7501601e-05
2.7407642e-05
2.7311572e-05
2.7213405e-05
2.7113151e-05
2.7010822e-05
2.6906432e-05
2.6799993e-05
2.669152e-05
2.6581027e-05
2.6468527e-05
2.6354036e-05
2.623757e-05
2.6119145e-05
2.5998777e-05
2.5876484e-05
2.5752282e-05
2.562619e-05
2.5498227e-05
2.5368411e-05
2.5236763e-05
2.5103303e-05
2.4968052e-05
2.4831031e-05
2.4692262e-05
2.4551767e-05
2.4409571e-05
2.4265696e-05
2.4120167e-05
2.3973009e-05
2.3824247e-05
2.3673909e-05
2.352202e-05
2.3368608e-05
2.3213701e-05
2.3057328e-05
2.2899518e-05
2.2740301e-05
2.2579708e-05
2.2417769e-05
2.2254517e-05
2.2089984e-05
2.1924204e-05
2.1757209e-05
2.1589034e-05
2.1419715e-05
2.1249287e-05
2.1077785e-05
2.0905247e-05
2.0731711e-05
2.0557214e-05
2.0381794e-05
2.0205492e-05
2.0028346e-05
1.9850397e-05
1.9671686e-05
1.9492255e-05
1.9312144e-05
1.9131398e-05
1.8950058e-05
1.8768168e-05
1.8585771e-05
1.8402914e-05
1.821964e-05
1.8035995e-05
1.7852025e-05
1.7667774e-05
1.7483291e-05
1.7298621e-05
1.7113811e-05
1.6928909e-05
1.6743963e-05
1.6559021e-05
1.6374129e-05
1.6189342e-05
1.6004692e-05
1.5820286e-05
1.5636011e-05
1.5452667e-05
2.9704028e-05
2.970232e-05
2.969842e-05
2.9692108e-05
2.9683388e-05
2.9672315e-05
2.9658909e-05
2.964317e-05
2.9625092e-05
2.9604674e-05
2.9581919e-05
2.9556828e-05
2.9529404e-05
2.9499648e-05
2.9467563e-05
2.943315e-05
2.9396414e-05
2.9357355e-05
2.9315977e-05
2.9272284e-05
2.9226278e-05
2.9177964e-05
2.9127344e-05
2.9074424e-05
2.9019207e-05
2.8961699e-05
2.8901903e-05
2.8839825e-05
2.877547e-05
2.8708845e-05
2.8639954e-05
2.8568804e-05
2.8495401e-05
2.8419753e-05
2.8341867e-05
2.8261749e-05
2.8179408e-05
2.8094852e-05
2.800809e-05
2.7919129e-05
2.782798e-05
2.7734652e-05
2.7639155e-05
2.75415e-05
2.7441696e-05
2.7339756e-05
2.7235692e-05
2.7129514e-05
2.7021237e-05
2.6910872e-05
2.6798433e-05
2.6683934e-05
2.6567391e-05
2.6448816e-05
2.6328227e-05
2.6205639e-05
2.6081069e-05
2.5954533e-05
2.582605e-05
2.5695636e-05
2.5563312e-05
2.5429097e-05
2.5293009e-05
2.5155071e-05
2.5015302e-05
2.4873725e-05
2.4730361e-05
2.4585235e-05
2.4438369e-05
2.4289787e-05
2.4139515e-05
2.3987577e-05
2.3834001e-05
2.3678812e-05
2.3522039e-05
2.3363709e-05
2.3203852e-05
2.3042496e-05
2.2879673e-05
2.2715412e-05
2.2549745e-05
2.2382705e-05
2.2214325e-05
2.2044637e-05
2.1873677e-05
2.1701479e-05
2.1528079e-05
2.1353513e-05
2.1177818e-05
2.1001032e-05
2.0823193e-05
2.064434e-05
2.0464513e-05
2.0283752e-05
2.0102098e-05
1.9919592e-05
1.9736276e-05
1.9552194e-05
1.9367388e-05
1.9181902e-05
1.8995782e-05
1.880907e-05
1.8621815e-05
1.843406e-05
1.8245854e-05
1.8057243e-05
1.7868275e-05
1.7678997e-05
1.7489458e-05
1.7299706e-05
1.7109792e-05
1.6919763e-05
1.672967e-05
1.6539563e-05
1.6349491e-05
1.6159512e-05
1.5969654e-05
1.5780048e-05
1.5590526e-05
1.540216e-05
3.000169e-05
2.9999958e-05
2.9996003e-05
2.9989599e-05
2.9980754e-05
2.9969522e-05
2.9955924e-05
2.9939958e-05
2.9921619e-05
2.9900906e-05
2.9877821e-05
2.9852365e-05
2.9824541e-05
2.979435e-05
2.9761793e-05
2.9726873e-05
2.9689592e-05
2.9649952e-05
2.9607955e-05
2.9563605e-05
2.9516904e-05
2.9467855e-05
2.9416461e-05
2.9362726e-05
2.9306654e-05
2.9248249e-05
2.9187514e-05
2.9124455e-05
2.9059075e-05
2.899138e-05
2.8921375e-05
2.8849066e-05
2.8774458e-05
2.8697557e-05
2.8618369e-05
2.8536902e-05
2.8453162e-05
2.8367157e-05
2.8278893e-05
2.8188381e-05
2.8095627e-05
2.800064e-05
2.790343e-05
2.7804007e-05
2.770238e-05
2.7598559e-05
2.7492556e-05
2.7384381e-05
2.7274047e-05
2.7161566e-05
2.7046951e-05
2.6930214e-05
2.6811369e-05
2.6690431e-05
2.6567414e-05
2.6442333e-05
2.6315205e-05
2.6186046e-05
2.6054872e-05
2.5921702e-05
2.5786553e-05
2.5649444e-05
2.5510395e-05
2.5369425e-05
2.5226555e-05
2.5081807e-05
2.4935202e-05
2.4786763e-05
2.4636513e-05
2.4484476e-05
2.4330677e-05
2.4175141e-05
2.4017894e-05
2.3858963e-05
2.3698376e-05
2.353616e-05
2.3372344e-05
2.3206958e-05
2.3040033e-05
2.28716e-05
2.270169e-05
2.2530336e-05
2.2357571e-05
2.218343e-05
2.2007948e-05
2.1831159e-05
2.1653101e-05
2.1473811e-05
2.1293325e-05
2.1111683e-05
2.0928925e-05
2.074509e-05
2.0560219e-05
2.0374353e-05
2.0187534e-05
1.9999806e-05
1.9811212e-05
1.9621797e-05
1.9431604e-05
1.9240681e-05
1.9049072e-05
1.8856824e-05
1.8663985e-05
1.8470604e-05
1.8276728e-05
1.8082408e-05
1.7887693e-05
1.7692631e-05
1.7497275e-05
1.7301674e-05
1.7105881e-05
1.6909947e-05
1.6713924e-05
1.6517865e-05
1.6321822e-05
1.6125857e-05
1.5929992e-05
1.5734388e-05
1.5538811e-05
1.5344647e-05
3.0333476e-05
3.0331718e-05
3.0327703e-05
3.0321203e-05
3.0312225e-05
3.0300823e-05
3.028702e-05
3.0270812e-05
3.0252195e-05
3.0231167e-05
3.020773e-05
3.0181885e-05
3.0153634e-05
3.0122978e-05
3.0089918e-05
3.0054455e-05
3.0016592e-05
2.997633e-05
2.9933671e-05
2.9888617e-05
2.9841171e-05
2.9791334e-05
2.973911e-05
2.9684501e-05
2.962751e-05
2.9568141e-05
2.9506397e-05
2.9442281e-05
2.9375798e-05
2.9306951e-05
2.9235745e-05
2.9162184e-05
2.9086274e-05
2.9008019e-05
2.8927425e-05
2.8844498e-05
2.8759243e-05
2.8671668e-05
2.8581778e-05
2.8489581e-05
2.8395084e-05
2.8298296e-05
2.8199223e-05
2.8097876e-05
2.7994262e-05
2.7888392e-05
2.7780275e-05
2.7669921e-05
2.7557341e-05
2.7442547e-05
2.732555e-05
2.7206363e-05
2.7084998e-05
2.6961468e-05
2.6835788e-05
2.6707972e-05
2.6578034e-05
2.6445991e-05
2.6311858e-05
2.6175653e-05
2.6037392e-05
2.5897094e-05
2.5754778e-05
2.5610462e-05
2.5464167e-05
2.5315914e-05
2.5165724e-05
2.5013619e-05
2.4859622e-05
2.4703756e-05
2.4546046e-05
2.4386518e-05
2.4225196e-05
2.4062107e-05
2.389728e-05
2.3730741e-05
2.356252e-05
2.3392647e-05
2.3221153e-05
2.3048067e-05
2.2873424e-05
2.2697256e-05
2.2519596e-05
2.2340479e-05
2.2159941e-05
2.1978018e-05
2.1794747e-05
2.1610167e-05
2.1424315e-05
2.1237231e-05
2.1048957e-05
2.0859532e-05
2.0668999e-05
2.0477401e-05
2.0284782e-05
2.0091185e-05
1.9896656e-05
1.9701242e-05
1.9504987e-05
1.9307941e-05
1.911015e-05
1.8911664e-05
1.8712533e-05
1.8512806e-05
1.8312537e-05
1.8111774e-05
1.7910571e-05
1.7708979e-05
1.7507051e-05
1.7304841e-05
1.7102403e-05
1.6899791e-05
1.6697061e-05
1.6494269e-05
1.6291468e-05
1.6088724e-05
1.5886059e-05
1.568366e-05
1.5481223e-05
1.5280486e-05
3.0697675e-05
3.069589e-05
3.0691813e-05
3.0685213e-05
3.0676096e-05
3.0664518e-05
3.0650501e-05
3.0634042e-05
3.0615136e-05
3.059378e-05
3.0569976e-05
3.0543725e-05
3.0515028e-05
3.0483887e-05
3.04503e-05
3.0414271e-05
3.0375799e-05
3.0334886e-05
3.0291534e-05
3.0245743e-05
3.0197515e-05
3.0146852e-05
3.0093756e-05
3.0038229e-05
2.9980273e-05
2.991989e-05
2.9857083e-05
2.9791854e-05
2.9724207e-05
2.9654144e-05
2.958167e-05
2.9506787e-05
2.9429499e-05
2.9349811e-05
2.9267727e-05
2.9183251e-05
2.9096389e-05
2.9007145e-05
2.8915526e-05
2.8821537e-05
2.8725184e-05
2.8626475e-05
2.8525415e-05
2.8422014e-05
2.8316278e-05
2.8208215e-05
2.8097835e-05
2.7985146e-05
2.7870159e-05
2.7752883e-05
2.7633328e-05
2.7511507e-05
2.7387431e-05
2.7261111e-05
2.7132561e-05
2.7001794e-05
2.6868823e-05
2.6733665e-05
2.6596333e-05
2.6456844e-05
2.6315214e-05
2.617146e-05
2.60256e-05
2.5877653e-05
2.5727638e-05
2.5575574e-05
2.5421484e-05
2.5265388e-05
2.5107308e-05
2.4947269e-05
2.4785293e-05
2.4621405e-05
2.4455631e-05
2.4287997e-05
2.411853e-05
2.3947259e-05
2.3774213e-05
2.359942e-05
2.3422912e-05
2.3244721e-05
2.3064879e-05
2.2883419e-05
2.2700375e-05
2.2515783e-05
2.2329678e-05
2.2142099e-05
2.1953082e-05
2.1762666e-05
2.1570891e-05
2.1377799e-05
2.1183429e-05
2.0987826e-05
2.0791031e-05
2.059309e-05
2.0394048e-05
2.019395e-05
1.9992844e-05
1.9790777e-05
1.9587798e-05
1.9383957e-05
1.9179302e-05
1.8973886e-05
1.8767761e-05
1.8560981e-05
1.8353598e-05
1.8145667e-05
1.7937242e-05
1.7728377e-05
1.7519127e-05
1.7309551e-05
1.7099705e-05
1.6889646e-05
1.6679433e-05
1.6469126e-05
1.6258779e-05
1.6048467e-05
1.5838203e-05
1.5628211e-05
1.5418104e-05
1.5210018e-05
3.1092654e-05
3.1090841e-05
3.1086701e-05
3.1079998e-05
3.107074e-05
3.1058982e-05
3.1044747e-05
3.1028031e-05
3.1008829e-05
3.0987137e-05
3.0962958e-05
3.0936292e-05
3.090714e-05
3.0875501e-05
3.0841376e-05
3.0804765e-05
3.0765669e-05
3.0724089e-05
3.0680024e-05
3.0633475e-05
3.0584444e-05
3.0532931e-05
3.0478937e-05
3.0422463e-05
3.036351e-05
3.030208e-05
3.0238175e-05
3.0171795e-05
3.0102943e-05
3.0031621e-05
2.9957831e-05
2.9881575e-05
2.9802856e-05
2.9721677e-05
2.9638041e-05
2.9551951e-05
2.9463412e-05
2.9372426e-05
2.9278999e-05
2.9183135e-05
2.9084839e-05
2.8984116e-05
2.8880971e-05
2.8775412e-05
2.8667444e-05
2.8557074e-05
2.844431e-05
2.8329159e-05
2.821163e-05
2.8091731e-05
2.7969472e-05
2.7844862e-05
2.7717912e-05
2.7588633e-05
2.7457036e-05
2.7323133e-05
2.7186937e-05
2.7048462e-05
2.690772e-05
2.6764728e-05
2.6619501e-05
2.6472054e-05
2.6322404e-05
2.617057e-05
2.6016569e-05
2.586042e-05
2.5702144e-05
2.5541761e-05
2.5379293e-05
2.5214762e-05
2.5048192e-05
2.4879606e-05
2.4709031e-05
2.4536491e-05
2.4362013e-05
2.4185627e-05
2.4007359e-05
2.3827241e-05
2.3645302e-05
2.3461575e-05
2.3276091e-05
2.3088886e-05
2.2899993e-05
2.2709447e-05
2.2517287e-05
2.2323549e-05
2.2128272e-05
2.1931495e-05
2.173326e-05
2.1533609e-05
2.1332583e-05
2.1130228e-05
2.0926586e-05
2.0721706e-05
2.0515632e-05
2.0308414e-05
2.01001e-05
1.9890739e-05
1.9680383e-05
1.9469083e-05
1.9256891e-05
1.9043861e-05
1.8830049e-05
1.861551e-05
1.8400301e-05
1.8184478e-05
1.7968099e-05
1.775122e-05
1.7533902e-05
1.7316202e-05
1.7098184e-05
1.6879906e-05
1.6661432e-05
1.6442824e-05
1.6224141e-05
1.6005463e-05
1.5786799e-05
1.5568409e-05
1.5349817e-05
1.5133593e-05
3.1516836e-05
3.1514996e-05
3.1510792e-05
3.1503987e-05
3.1494587e-05
3.1482649e-05
3.1468196e-05
3.1451223e-05
3.1431724e-05
3.1409697e-05
3.1385142e-05
3.135806e-05
3.1328449e-05
3.1296311e-05
3.1261645e-05
3.122445e-05
3.1184725e-05
3.1142472e-05
3.1097689e-05
3.1050376e-05
3.1000533e-05
3.0948161e-05
3.0893258e-05
3.0835825e-05
3.0775863e-05
3.0713371e-05
3.0648349e-05
3.0580799e-05
3.0510721e-05
3.0438115e-05
3.0362982e-05
3.0285324e-05
3.0205142e-05
3.0122437e-05
3.0037211e-05
2.9949466e-05
2.9859204e-05
2.9766427e-05
2.967114e-05
2.9573343e-05
2.9473041e-05
2.9370238e-05
2.9264938e-05
2.9157144e-05
2.9046863e-05
2.8934099e-05
2.8818858e-05
2.8701146e-05
2.858097e-05
2.8458337e-05
2.8333255e-05
2.8205731e-05
2.8075776e-05
2.7943398e-05
2.7808606e-05
2.7671413e-05
2.7531829e-05
2.7389865e-05
2.7245535e-05
2.7098852e-05
2.6949829e-05
2.6798483e-05
2.6644828e-05
2.648888e-05
2.6330658e-05
2.6170178e-05
2.600746e-05
2.5842524e-05
2.567539e-05
2.550608e-05
2.5334617e-05
2.5161023e-05
2.4985324e-05
2.4807544e-05
2.4627711e-05
2.4445852e-05
2.4261994e-05
2.4076169e-05
2.3888406e-05
2.3698736e-05
2.3507194e-05
2.3313812e-05
2.3118626e-05
2.2921671e-05
2.2722986e-05
2.2522607e-05
2.2320576e-05
2.2116931e-05
2.1911716e-05
2.1704972e-05
2.1496745e-05
2.1287079e-05
2.107602e-05
2.0863616e-05
2.0649915e-05
2.0434968e-05
2.0218825e-05
2.0001538e-05
1.978316e-05
1.9563745e-05
1.9343348e-05
1.9122025e-05
1.8899835e-05
1.8676836e-05
1.845309e-05
1.8228654e-05
1.8003589e-05
1.7777955e-05
1.7551816e-05
1.7325235e-05
1.7098275e-05
1.6871003e-05
1.6643483e-05
1.6415783e-05
1.6187965e-05
1.5960116e-05
1.5732239e-05
1.5504636e-05
1.5276732e-05
1.5051572e-05
3.1968694e-05
3.1966827e-05
3.1962562e-05
3.1955656e-05
3.1946117e-05
3.1934003e-05
3.1919335e-05
3.190211e-05
3.188232e-05
3.1859962e-05
3.1835038e-05
3.1807545e-05
3.1777485e-05
3.1744855e-05
3.1709654e-05
3.1671882e-05
3.1631537e-05
3.1588619e-05
3.1543125e-05
3.1495055e-05
3.1444408e-05
3.1391181e-05
3.1335376e-05
3.1276989e-05
3.121602e-05
3.1152468e-05
3.1086332e-05
3.1017612e-05
3.0946305e-05
3.0872412e-05
3.0795932e-05
3.0716864e-05
3.0635209e-05
3.0550966e-05
3.0464135e-05
3.0374717e-05
3.0282712e-05
3.0188121e-05
3.0090944e-05
2.9991184e-05
2.9888842e-05
2.9783919e-05
2.9676419e-05
2.9566343e-05
2.9453695e-05
2.9338478e-05
2.9220696e-05
2.9100354e-05
2.8977456e-05
2.8852008e-05
2.8724015e-05
2.8593484e-05
2.8460422e-05
2.8324836e-05
2.8186735e-05
2.8046127e-05
2.7903023e-05
2.7757431e-05
2.7609364e-05
2.7458833e-05
2.730585e-05
2.7150428e-05
2.6992582e-05
2.6832327e-05
2.6669678e-05
2.6504653e-05
2.6337268e-05
2.6167542e-05
2.5995496e-05
2.5821148e-05
2.5644522e-05
2.5465639e-05
2.5284522e-05
2.5101198e-05
2.4915691e-05
2.4728029e-05
2.4538239e-05
2.4346351e-05
2.4152395e-05
2.3956402e-05
2.3758406e-05
2.355844e-05
2.335654e-05
2.3152741e-05
2.2947082e-05
2.2739601e-05
2.2530339e-05
2.2319337e-05
2.2106638e-05
2.1892285e-05
2.1676325e-05
2.1458804e-05
2.1239769e-05
2.101927e-05
2.0797357e-05
2.0574082e-05
2.0349499e-05
2.012366e-05
1.9896622e-05
1.9668441e-05
1.9439176e-05
1.9208884e-05
1.8977628e-05
1.874547e-05
1.8512473e-05
1.8278701e-05
1.8044216e-05
1.7809083e-05
1.7573368e-05
1.7337139e-05
1.7100463e-05
1.6863412e-05
1.6626052e-05
1.6388459e-05
1.6150696e-05
1.5912859e-05
1.5674944e-05
1.5437299e-05
1.5199241e-05
1.4964329e-05
3.2446737e-05
3.2444844e-05
3.2440519e-05
3.2433517e-05
3.2423845e-05
3.2411561e-05
3.2396688e-05
3.237922e-05
3.235915e-05
3.2336475e-05
3.2311194e-05
3.2283307e-05
3.2252812e-05
3.2219707e-05
3.218399e-05
3.214566e-05
3.2104714e-05
3.2061151e-05
3.2014967e-05
3.1966161e-05
3.191473e-05
3.1860672e-05
3.1803985e-05
3.1744666e-05
3.1682712e-05
3.1618122e-05
3.1550892e-05
3.148102e-05
3.1408504e-05
3.1333342e-05
3.1255531e-05
3.1175069e-05
3.1091954e-05
3.1006184e-05
3.0917758e-05
3.0826674e-05
3.073293e-05
3.0636525e-05
3.053746e-05
3.0435731e-05
3.0331341e-05
3.0224287e-05
3.0114571e-05
3.0002193e-05
2.9887154e-05
2.9769456e-05
2.96491e-05
2.9526088e-05
2.9400424e-05
2.9272109e-05
2.9141149e-05
2.9007547e-05
2.8871309e-05
2.8732439e-05
2.8590944e-05
2.844683e-05
2.8300106e-05
2.8150779e-05
2.7998859e-05
2.7844355e-05
2.7687277e-05
2.7527638e-05
2.7365449e-05
2.7200723e-05
2.7033476e-05
2.6863721e-05
2.6691475e-05
2.6516755e-05
2.6339579e-05
2.6159966e-05
2.5977936e-05
2.5793512e-05
2.5606715e-05
2.5417569e-05
2.5226099e-05
2.5032331e-05
2.4836293e-05
2.4638013e-05
2.4437521e-05
2.4234849e-05
2.4030028e-05
2.3823093e-05
2.3614079e-05
2.3403023e-05
2.3189962e-05
2.2974937e-05
2.2757987e-05
2.2539156e-05
2.2318486e-05
2.2096024e-05
2.1871815e-05
2.1645907e-05
2.1418351e-05
2.1189196e-05
2.0958496e-05
2.0726304e-05
2.0492675e-05
2.0257666e-05
2.0021335e-05
1.9783742e-05
1.9544946e-05
1.9305011e-05
1.9064001e-05
1.8821983e-05
1.8579023e-05
1.8335188e-05
1.8090544e-05
1.784516e-05
1.7599106e-05
1.7352455e-05
1.710528e-05
1.6857653e-05
1.660965e-05
1.6361348e-05
1.6112816e-05
1.5864159e-05
1.5615365e-05
1.5366832e-05
1.5117759e-05
1.487226e-05
3.29495e-05
3.2947583e-05
3.2943203e-05
3.293611e-05
3.2926313e-05
3.291387e-05
3.2898804e-05
3.2881108e-05
3.2860776e-05
3.2837802e-05
3.2812187e-05
3.2783928e-05
3.2753023e-05
3.2719471e-05
3.2683266e-05
3.2644408e-05
3.2602893e-05
3.2558717e-05
3.2511878e-05
3.2462371e-05
3.2410194e-05
3.2355342e-05
3.2297811e-05
3.2237599e-05
3.2174699e-05
3.2109109e-05
3.2040825e-05
3.1969842e-05
3.1896156e-05
3.1819764e-05
3.174066e-05
3.1658841e-05
3.1574303e-05
3.1487042e-05
3.1397055e-05
3.1304336e-05
3.1208884e-05
3.1110695e-05
3.1009765e-05
3.0906092e-05
3.0799673e-05
3.0690506e-05
3.0578588e-05
3.0463918e-05
3.0346494e-05
3.0226316e-05
3.0103382e-05
2.9977692e-05
2.9849248e-05
2.9718049e-05
2.9584097e-05
2.9447393e-05
2.9307941e-05
2.9165743e-05
2.9020804e-05
2.8873126e-05
2.8722716e-05
2.856958e-05
2.8413724e-05
2.8255155e-05
2.8093883e-05
2.7929916e-05
2.7763264e-05
2.7593939e-05
2.7421952e-05
2.7247318e-05
2.7070049e-05
2.6890161e-05
2.6707671e-05
2.6522597e-05
2.6334956e-05
2.6144769e-05
2.5952056e-05
2.5756842e-05
2.5559148e-05
2.5359001e-05
2.5156426e-05
2.4951452e-05
2.4744108e-05
2.4534425e-05
2.4322434e-05
2.4108169e-05
2.3891666e-05
2.3672961e-05
2.3452092e-05
2.3229099e-05
2.3004024e-05
2.2776909e-05
2.25478e-05
2.2316741e-05
2.2083781e-05
2.184897e-05
2.1612358e-05
2.1373998e-05
2.1133945e-05
2.0892253e-05
2.0648982e-05
2.040419e-05
2.0157937e-05
1.9910287e-05
1.9661303e-05
1.9411051e-05
1.9159598e-05
1.8907015e-05
1.8653373e-05
1.8398743e-05
1.8143195e-05
1.7886801e-05
1.7629638e-05
1.7371781e-05
1.7113308e-05
1.6854299e-05
1.6594832e-05
1.6334991e-05
1.6074849e-05
1.5814522e-05
1.5553988e-05
1.5293699e-05
1.5032731e-05
1.4775784e-05
3.3475537e-05
3.3473598e-05
3.3469167e-05
3.3461993e-05
3.3452082e-05
3.3439495e-05
3.3424253e-05
3.340635e-05
3.3385778e-05
3.3362532e-05
3.3336611e-05
3.3308012e-05
3.3276732e-05
3.3242768e-05
3.3206115e-05
3.3166771e-05
3.312473e-05
3.3079988e-05
3.3032541e-05
3.2982384e-05
3.2929511e-05
3.2873918e-05
3.28156e-05
3.2754549e-05
3.2690762e-05
3.2624231e-05
3.2554952e-05
3.2482918e-05
3.2408122e-05
3.233056e-05
3.2250224e-05
3.2167109e-05
3.2081209e-05
3.1992516e-05
3.1901026e-05
3.1806732e-05
3.1709628e-05
3.1609709e-05
3.1506968e-05
3.1401401e-05
3.1293003e-05
3.1181768e-05
3.1067691e-05
3.0950768e-05
3.0830996e-05
3.070837e-05
3.0582887e-05
3.0454544e-05
3.0323338e-05
3.0189268e-05
3.0052333e-05
2.991253e-05
2.9769861e-05
2.9624325e-05
2.9475923e-05
2.9324658e-05
2.917053e-05
2.9013545e-05
2.8853705e-05
2.8691015e-05
2.8525482e-05
2.8357112e-05
2.8185912e-05
2.8011892e-05
2.7835061e-05
2.765543e-05
2.7473011e-05
2.7287816e-05
2.7099861e-05
2.6909161e-05
2.6715732e-05
2.6519593e-05
2.6320763e-05
2.6119263e-05
2.5915115e-05
2.5708344e-05
2.5498974e-05
2.5287032e-05
2.5072546e-05
2.4855547e-05
2.4636065e-05
2.4414135e-05
2.418979e-05
2.3963068e-05
2.3734006e-05
2.3502644e-05
2.3269025e-05
2.3033191e-05
2.2795189e-05
2.2555064e-05
2.2312867e-05
2.2068647e-05
2.1822458e-05
2.1574354e-05
2.1324391e-05
2.1072627e-05
2.0819122e-05
2.0563938e-05
2.030714e-05
2.0048791e-05
1.978896e-05
1.9527714e-05
1.9265127e-05
1.9001272e-05
1.8736226e-05
1.8470062e-05
1.8202856e-05
1.7934684e-05
1.7665627e-05
1.7395767e-05
1.7125187e-05
1.6853971e-05
1.6582203e-05
1.6309975e-05
1.6037363e-05
1.5764494e-05
1.5491337e-05
1.5218404e-05
1.4944633e-05
1.4675353e-05
3.4023416e-05
3.4021458e-05
3.4016983e-05
3.4009736e-05
3.3999727e-05
3.3987013e-05
3.3971617e-05
3.3953533e-05
3.393275e-05
3.3909265e-05
3.3883074e-05
3.3854174e-05
3.3822562e-05
3.3788233e-05
3.3751182e-05
3.3711404e-05
3.3668894e-05
3.3623645e-05
3.3575652e-05
3.3524908e-05
3.3471408e-05
3.3415143e-05
3.3356108e-05
3.3294293e-05
3.3229693e-05
3.31623e-05
3.3092104e-05
3.3019099e-05
3.2943276e-05
3.2864626e-05
3.2783142e-05
3.2698815e-05
3.2611636e-05
3.2521596e-05
3.2428687e-05
3.2332901e-05
3.2234229e-05
3.2132662e-05
3.2028192e-05
3.1920811e-05
3.181051e-05
3.1697283e-05
3.158112e-05
3.1462016e-05
3.1339963e-05
3.1214953e-05
3.1086981e-05
3.0956041e-05
3.0822127e-05
3.0685233e-05
3.0545356e-05
3.0402492e-05
3.0256636e-05
3.0107787e-05
2.9955941e-05
2.9801098e-05
2.9643257e-05
2.9482418e-05
2.9318581e-05
2.915175e-05
2.8981926e-05
2.8809113e-05
2.8633317e-05
2.8454542e-05
2.8272796e-05
2.8088087e-05
2.7900425e-05
2.7709819e-05
2.7516281e-05
2.7319826e-05
2.7120466e-05
2.6918219e-05
2.6713101e-05
2.6505132e-05
2.6294332e-05
2.6080723e-05
2.5864328e-05
2.5645174e-05
2.5423286e-05
2.5198694e-05
2.4971429e-05
2.4741522e-05
2.4509009e-05
2.4273924e-05
2.4036306e-05
2.3796196e-05
2.3553634e-05
2.3308666e-05
2.3061336e-05
2.2811692e-05
2.2559785e-05
2.2305667e-05
2.2049391e-05
2.1791014e-05
2.1530595e-05
2.1268192e-05
2.100387e-05
2.0737691e-05
2.0469724e-05
2.0200037e-05
1.9928699e-05
1.9655784e-05
1.9381368e-05
1.9105529e-05
1.8828349e-05
1.8549904e-05
1.8270276e-05
1.7989546e-05
1.77078e-05
1.7425125e-05
1.714161e-05
1.6857346e-05
1.6572423e-05
1.6286939e-05
1.6000974e-05
1.5714667e-05
1.5427981e-05
1.5141485e-05
1.4853979e-05
1.457145e-05
3.459171e-05
3.4589737e-05
3.4585225e-05
3.4577919e-05
3.4567828e-05
3.4555009e-05
3.4539486e-05
3.4521251e-05
3.4500293e-05
3.4476607e-05
3.4450191e-05
3.4421039e-05
3.4389147e-05
3.4354509e-05
3.431712e-05
3.4276972e-05
3.423406e-05
3.4188376e-05
3.4139913e-05
3.4088662e-05
3.4034615e-05
3.3977764e-05
3.39181e-05
3.3855614e-05
3.3790295e-05
3.3722134e-05
3.3651121e-05
3.3577246e-05
3.3500498e-05
3.3420866e-05
3.3338339e-05
3.3252907e-05
3.3164558e-05
3.307328e-05
3.2979063e-05
3.2881894e-05
3.2781763e-05
3.2678658e-05
3.2572568e-05
3.2463481e-05
3.2351386e-05
3.2236272e-05
3.2118128e-05
3.1996944e-05
3.1872709e-05
3.1745412e-05
3.1615045e-05
3.1481597e-05
3.134506e-05
3.1205425e-05
3.1062684e-05
3.0916829e-05
3.0767853e-05
3.061575e-05
3.0460515e-05
3.0302142e-05
3.0140627e-05