/*--------------------------------*- C++ -*----------------------------------*\
| =========                 |                                                 |
| \\      /  F ield         | OpenFOAM: The Open Source CFD Toolbox           |
|  \\    /   O peration     | Version:  v2012                                 |
|   \\  /    A nd           | Website:  www.openfoam.com                      |
|    \\/     M anipulation  |                                                 |
\*---------------------------------------------------------------------------*/
FoamFile
{
    version     2.0;
    format      ascii;
    class       surfaceScalarField;
    location    "100";
    object      phi;
}
// * * * * * * * * * * * * * * * * * * * * * * * * * * * * * * * * * * * * * //

dimensions      [0 3 -1 0 0 0 0];
oriented        oriented;


internalField   nonuniform List<scalar> 
245560
(
3.4075507e-06
-6.2761622e-12
3.4075694e-06
-1.8655798e-11
3.4076003e-06
-3.0938e-11
3.4076435e-06
-4.3201655e-11
3.407699e-06
-5.5449497e-11
3.4077667e-06
-6.7680158e-11
3.4078466e-06
-7.9893426e-11
3.4079387e-06
-9.2089743e-11
3.4080429e-06
-1.0426922e-10
3.4081594e-06
-1.1643149e-10
3.4082879e-06
-1.2857585e-10
3.4084286e-06
-1.4070142e-10
3.4085814e-06
-1.5280722e-10
3.4087463e-06
-1.6489209e-10
3.4089233e-06
-1.7695481e-10
3.4091123e-06
-1.8899402e-10
3.4093133e-06
-2.0100829e-10
3.4095263e-06
-2.1299611e-10
3.4097512e-06
-2.2495591e-10
3.4099881e-06
-2.3688607e-10
3.4102369e-06
-2.4878491e-10
3.4104976e-06
-2.606507e-10
3.41077e-06
-2.7248167e-10
3.4110543e-06
-2.8427601e-10
3.4113504e-06
-2.9603187e-10
3.4116581e-06
-3.0774738e-10
3.4119775e-06
-3.1942062e-10
3.4123086e-06
-3.3104965e-10
3.4126512e-06
-3.4263247e-10
3.4130054e-06
-3.5416708e-10
3.413371e-06
-3.6565143e-10
3.4137481e-06
-3.7708344e-10
3.4141366e-06
-3.8846101e-10
3.4145363e-06
-3.9978199e-10
3.4149474e-06
-4.110442e-10
3.4153696e-06
-4.2224544e-10
3.415803e-06
-4.3338346e-10
3.4162475e-06
-4.4445599e-10
3.4167029e-06
-4.5546071e-10
3.4171693e-06
-4.6639528e-10
3.4176466e-06
-4.7725732e-10
3.4181346e-06
-4.8804443e-10
3.4186334e-06
-4.9875415e-10
3.4191428e-06
-5.09384e-10
3.4196627e-06
-5.1993147e-10
3.4201931e-06
-5.3039403e-10
3.4207339e-06
-5.4076909e-10
3.4212849e-06
-5.5105405e-10
3.4218462e-06
-5.6124627e-10
3.4224175e-06
-5.713431e-10
3.4229989e-06
-5.8134185e-10
3.4235901e-06
-5.912398e-10
3.4241911e-06
-6.0103421e-10
3.4248018e-06
-6.1072234e-10
3.4254222e-06
-6.2030139e-10
3.4260519e-06
-6.2976858e-10
3.426691e-06
-6.3912108e-10
3.4273394e-06
-6.4835608e-10
3.4279969e-06
-6.5747072e-10
3.4286633e-06
-6.6646216e-10
3.4293387e-06
-6.7532753e-10
3.4300227e-06
-6.8406397e-10
3.4307154e-06
-6.926686e-10
3.4314165e-06
-7.0113855e-10
3.432126e-06
-7.0947094e-10
3.4328437e-06
-7.1766289e-10
3.4335694e-06
-7.2571154e-10
3.434303e-06
-7.3361402e-10
3.4350444e-06
-7.4136748e-10
3.4357933e-06
-7.4896908e-10
3.4365497e-06
-7.5641599e-10
3.4373134e-06
-7.6370541e-10
3.4380843e-06
-7.7083454e-10
3.4388621e-06
-7.7780062e-10
3.4396467e-06
-7.8460091e-10
3.4404379e-06
-7.9123269e-10
3.4412356e-06
-7.9769328e-10
3.4420396e-06
-8.0398004e-10
3.4428497e-06
-8.1009036e-10
3.4436657e-06
-8.1602165e-10
3.4444875e-06
-8.2177138e-10
3.4453148e-06
-8.2733707e-10
3.4461475e-06
-8.3271628e-10
3.4469854e-06
-8.379066e-10
3.4478283e-06
-8.4290571e-10
3.448676e-06
-8.477113e-10
3.4495284e-06
-8.5232115e-10
3.4503851e-06
-8.5673309e-10
3.451246e-06
-8.60945e-10
3.452111e-06
-8.6495483e-10
3.4529798e-06
-8.6876061e-10
3.4538521e-06
-8.7236041e-10
3.4547279e-06
-8.757524e-10
3.4556068e-06
-8.789348e-10
3.4564887e-06
-8.8190591e-10
3.4573734e-06
-8.8466412e-10
3.4582606e-06
-8.8720789e-10
3.4591501e-06
-8.8953576e-10
3.4600418e-06
-8.9164636e-10
3.4609353e-06
-8.9353839e-10
3.4618305e-06
-8.9521066e-10
3.4627272e-06
-8.9666208e-10
3.4636251e-06
-8.9789159e-10
3.464524e-06
-8.9889831e-10
3.4654237e-06
-8.9968139e-10
3.4663239e-06
-9.0024016e-10
3.4672245e-06
-9.00574e-10
3.4681252e-06
-9.0068242e-10
3.4690257e-06
-9.0056505e-10
3.4699259e-06
-9.0022163e-10
3.4708256e-06
-8.9965203e-10
3.4717244e-06
-8.9885627e-10
3.4726223e-06
-8.9783449e-10
3.4735189e-06
-8.9658711e-10
3.474414e-06
-8.9511419e-10
3.4753074e-06
-8.9341849e-10
3.4761989e-06
-8.9149035e-10
3.4770883e-06
-8.8938692e-10
3.4779751e-06
-8.8680628e-10
-8.8541877e-10
3.4788605e-06
3.338832e-06
-1.2074294e-11
3.3388496e-06
-3.6290503e-11
3.3388792e-06
-6.0528944e-11
3.3389208e-06
-8.4749576e-11
3.3389743e-06
-1.0895525e-10
3.3390397e-06
-1.3314528e-10
3.3391171e-06
-1.5731715e-10
3.3392065e-06
-1.8146823e-10
3.3393079e-06
-2.0559612e-10
3.3394211e-06
-2.2969837e-10
3.3395463e-06
-2.5377233e-10
3.3396834e-06
-2.7781518e-10
3.3398324e-06
-3.0182396e-10
3.3399934e-06
-3.2579565e-10
3.3401661e-06
-3.4972709e-10
3.3403507e-06
-3.7361508e-10
3.3405472e-06
-3.9745633e-10
3.3407554e-06
-4.2124747e-10
3.3409755e-06
-4.4498509e-10
3.3412073e-06
-4.686657e-10
3.3414508e-06
-4.9228576e-10
3.3417059e-06
-5.1584168e-10
3.3419728e-06
-5.393298e-10
3.3422513e-06
-5.6274642e-10
3.3425413e-06
-5.860878e-10
3.3428429e-06
-6.0935012e-10
3.343156e-06
-6.3252953e-10
3.3434806e-06
-6.5562212e-10
3.3438166e-06
-6.7862393e-10
3.344164e-06
-7.0153094e-10
3.3445226e-06
-7.2433907e-10
3.3448926e-06
-7.4704419e-10
3.3452738e-06
-7.696421e-10
3.3456661e-06
-7.9212855e-10
3.3460696e-06
-8.1449922e-10
3.3464841e-06
-8.3674972e-10
3.3469096e-06
-8.5887561e-10
3.347346e-06
-8.8087238e-10
3.3477933e-06
-9.0273545e-10
3.3482513e-06
-9.2446016e-10
3.3487201e-06
-9.4604181e-10
3.3491996e-06
-9.6747561e-10
3.3496896e-06
-9.887567e-10
3.3501901e-06
-1.0098802e-09
3.350701e-06
-1.0308411e-09
3.3512222e-06
-1.0516343e-09
3.3517537e-06
-1.0722548e-09
3.3522953e-06
-1.0926973e-09
3.352847e-06
-1.1129567e-09
3.3534087e-06
-1.1330276e-09
3.3539803e-06
-1.1529048e-09
3.3545616e-06
-1.1725828e-09
3.3551527e-06
-1.1920561e-09
3.3557533e-06
-1.2113194e-09
3.3563633e-06
-1.230367e-09
3.3569827e-06
-1.2491934e-09
3.3576114e-06
-1.267793e-09
3.3582492e-06
-1.2861602e-09
3.358896e-06
-1.3042892e-09
3.3595518e-06
-1.3221745e-09
3.3602162e-06
-1.3398104e-09
3.3608894e-06
-1.357191e-09
3.361571e-06
-1.3743107e-09
3.362261e-06
-1.3911637e-09
3.3629593e-06
-1.4077443e-09
3.3636657e-06
-1.4240468e-09
3.36438e-06
-1.4400654e-09
3.3651022e-06
-1.4557945e-09
3.3658321e-06
-1.4712282e-09
3.3665695e-06
-1.486361e-09
3.3673143e-06
-1.5011872e-09
3.3680662e-06
-1.5157011e-09
3.3688253e-06
-1.5298973e-09
3.3695913e-06
-1.5437701e-09
3.370364e-06
-1.5573141e-09
3.3711433e-06
-1.5705238e-09
3.371929e-06
-1.583394e-09
3.3727209e-06
-1.5959192e-09
3.3735189e-06
-1.6080942e-09
3.3743228e-06
-1.6199139e-09
3.3751324e-06
-1.6313733e-09
3.3759476e-06
-1.6424672e-09
3.376768e-06
-1.6531909e-09
3.3775937e-06
-1.6635394e-09
3.3784243e-06
-1.6735082e-09
3.3792596e-06
-1.6830926e-09
3.3800996e-06
-1.6922881e-09
3.380944e-06
-1.7010904e-09
3.3817925e-06
-1.7094952e-09
3.3826451e-06
-1.7174983e-09
3.3835014e-06
-1.7250959e-09
3.3843613e-06
-1.732284e-09
3.3852246e-06
-1.7390589e-09
3.3860911e-06
-1.745417e-09
3.3869606e-06
-1.7513549e-09
3.3878328e-06
-1.7568694e-09
3.3887075e-06
-1.7619573e-09
3.3895846e-06
-1.7666156e-09
3.3904638e-06
-1.7708415e-09
3.3913449e-06
-1.7746324e-09
3.3922277e-06
-1.7779859e-09
3.3931119e-06
-1.7808997e-09
3.3939974e-06
-1.7833716e-09
3.3948839e-06
-1.7853997e-09
3.3957712e-06
-1.7869824e-09
3.3966591e-06
-1.788118e-09
3.3975473e-06
-1.7888052e-09
3.3984357e-06
-1.7890428e-09
3.3993239e-06
-1.7888298e-09
3.4002119e-06
-1.7881655e-09
3.4010993e-06
-1.7870494e-09
3.4019859e-06
-1.785481e-09
3.4028715e-06
-1.7834601e-09
3.4037559e-06
-1.780987e-09
3.4046389e-06
-1.7780612e-09
3.4055201e-06
-1.7746868e-09
3.4063995e-06
-1.7708449e-09
3.4072767e-06
-1.766641e-09
3.4081514e-06
-1.7615077e-09
-1.7585749e-09
3.4090246e-06
3.2714996e-06
-1.795743e-11
3.2715172e-06
-5.3899236e-11
3.2715465e-06
-8.9857743e-11
3.2715876e-06
-1.258151e-10
3.2716404e-06
-1.6176588e-10
3.271705e-06
-1.9770559e-10
3.2717813e-06
-2.3362949e-10
3.2718693e-06
-2.6953266e-10
3.2719692e-06
-3.0541014e-10
3.2720807e-06
-3.4125701e-10
3.272204e-06
-3.7706833e-10
3.272339e-06
-4.1283914e-10
3.2724858e-06
-4.4856442e-10
3.2726442e-06
-4.8423909e-10
3.2728143e-06
-5.1985806e-10
3.2729961e-06
-5.5541619e-10
3.2731896e-06
-5.9090826e-10
3.2733947e-06
-6.2632906e-10
3.2736114e-06
-6.6167328e-10
3.2738396e-06
-6.9693559e-10
3.2740795e-06
-7.3211058e-10
3.2743308e-06
-7.671928e-10
3.2745937e-06
-8.0217674e-10
3.274868e-06
-8.3705684e-10
3.2751537e-06
-8.7182744e-10
3.2754508e-06
-9.0648285e-10
3.2757593e-06
-9.4101731e-10
3.2760791e-06
-9.7542497e-10
3.2764102e-06
-1.0096999e-09
3.2767525e-06
-1.0438362e-09
3.277106e-06
-1.0778276e-09
3.2774706e-06
-1.1116681e-09
3.2778463e-06
-1.1453515e-09
3.2782331e-06
-1.1788712e-09
3.2786308e-06
-1.2122211e-09
3.2790395e-06
-1.2453944e-09
3.279459e-06
-1.2783847e-09
3.2798893e-06
-1.3111851e-09
3.2803303e-06
-1.3437888e-09
3.2807821e-06
-1.376189e-09
3.2812444e-06
-1.4083786e-09
3.2817173e-06
-1.4403504e-09
3.2822006e-06
-1.4720972e-09
3.2826943e-06
-1.5036117e-09
3.2831984e-06
-1.5348864e-09
3.2837127e-06
-1.5659139e-09
3.2842371e-06
-1.5966864e-09
3.2847716e-06
-1.6271962e-09
3.2853161e-06
-1.6574356e-09
3.2858704e-06
-1.6873966e-09
3.2864346e-06
-1.7170713e-09
3.2870085e-06
-1.7464515e-09
3.287592e-06
-1.775529e-09
3.2881849e-06
-1.8042958e-09
3.2887873e-06
-1.8327435e-09
3.289399e-06
-1.8608638e-09
3.2900198e-06
-1.8886482e-09
3.2906498e-06
-1.9160884e-09
3.2912886e-06
-1.9431758e-09
3.2919364e-06
-1.9699019e-09
3.2925928e-06
-1.9962581e-09
3.2932579e-06
-2.0222359e-09
3.2939314e-06
-2.0478266e-09
3.2946132e-06
-2.0730216e-09
3.2953033e-06
-2.0978123e-09
3.2960014e-06
-2.12219e-09
3.2967075e-06
-2.1461462e-09
3.2974214e-06
-2.1696722e-09
3.2981429e-06
-2.1927595e-09
3.298872e-06
-2.2153994e-09
3.2996084e-06
-2.2375835e-09
3.300352e-06
-2.2593033e-09
3.3011026e-06
-2.2805504e-09
3.3018602e-06
-2.3013164e-09
3.3026245e-06
-2.321593e-09
3.3033953e-06
-2.3413721e-09
3.3041726e-06
-2.3606456e-09
3.304956e-06
-2.3794054e-09
3.3057456e-06
-2.3976435e-09
3.306541e-06
-2.4153523e-09
3.3073422e-06
-2.4325239e-09
3.3081489e-06
-2.4491509e-09
3.3089609e-06
-2.4652258e-09
3.3097781e-06
-2.4807413e-09
3.3106003e-06
-2.4956903e-09
3.3114273e-06
-2.5100658e-09
3.3122588e-06
-2.5238609e-09
3.3130948e-06
-2.5370692e-09
3.313935e-06
-2.549684e-09
3.3147792e-06
-2.5616991e-09
3.3156272e-06
-2.5731084e-09
3.3164788e-06
-2.5839061e-09
3.3173339e-06
-2.5940864e-09
3.3181921e-06
-2.6036439e-09
3.3190533e-06
-2.6125733e-09
3.3199173e-06
-2.6208697e-09
3.3207839e-06
-2.6285281e-09
3.3216528e-06
-2.6355442e-09
3.3225239e-06
-2.6419135e-09
3.3233969e-06
-2.647632e-09
3.3242716e-06
-2.6526959e-09
3.3251478e-06
-2.6571017e-09
3.3260253e-06
-2.6608461e-09
3.3269038e-06
-2.6639262e-09
3.3277831e-06
-2.6663391e-09
3.3286631e-06
-2.6680825e-09
3.3295435e-06
-2.6691542e-09
3.330424e-06
-2.6695523e-09
3.3313044e-06
-2.6692753e-09
3.3321846e-06
-2.668322e-09
3.3330642e-06
-2.6666914e-09
3.3339431e-06
-2.6643829e-09
3.3348211e-06
-2.6613961e-09
3.3356978e-06
-2.6577314e-09
3.3365731e-06
-2.6533879e-09
3.3374468e-06
-2.6483719e-09
3.3383186e-06
-2.6426554e-09
3.3391884e-06
-2.6363948e-09
3.3400556e-06
-2.6287518e-09
-2.6243469e-09
3.3409214e-06
3.2055249e-06
-2.3748603e-11
3.2055423e-06
-7.1285179e-11
3.2055713e-06
-1.1884951e-10
3.2056119e-06
-1.6641792e-10
3.2056641e-06
-2.1398342e-10
3.2057279e-06
-2.6153921e-10
3.2058034e-06
-3.090786e-10
3.2058904e-06
-3.5659494e-10
3.2059891e-06
-4.040816e-10
3.2060994e-06
-4.5153195e-10
3.2062212e-06
-4.9893935e-10
3.2063547e-06
-5.4629711e-10
3.2064997e-06
-5.9359854e-10
3.2066563e-06
-6.4083685e-10
3.2068245e-06
-6.8800527e-10
3.2070042e-06
-7.3509693e-10
3.2071954e-06
-7.8210496e-10
3.207398e-06
-8.2902239e-10
3.2076122e-06
-8.7584223e-10
3.2078378e-06
-9.225574e-10
3.2080749e-06
-9.6916078e-10
3.2083233e-06
-1.0156452e-09
3.2085832e-06
-1.0620032e-09
3.2088543e-06
-1.1082277e-09
3.2091368e-06
-1.1543111e-09
3.2094306e-06
-1.2002459e-09
3.2097356e-06
-1.2460244e-09
3.2100518e-06
-1.2916391e-09
3.2103792e-06
-1.337082e-09
3.2107177e-06
-1.3823453e-09
3.2110673e-06
-1.427421e-09
3.2114279e-06
-1.4723009e-09
3.2117996e-06
-1.5169767e-09
3.2121821e-06
-1.56144e-09
3.2125756e-06
-1.6056825e-09
3.2129799e-06
-1.6496954e-09
3.213395e-06
-1.69347e-09
3.2138208e-06
-1.7369973e-09
3.2142573e-06
-1.7802684e-09
3.2147043e-06
-1.823274e-09
3.215162e-06
-1.8660048e-09
3.2156301e-06
-1.9084515e-09
3.2161086e-06
-1.9506042e-09
3.2165974e-06
-1.9924534e-09
3.2170965e-06
-2.0339891e-09
3.2176058e-06
-2.0752014e-09
3.2181252e-06
-2.11608e-09
3.2186546e-06
-2.1566146e-09
3.219194e-06
-2.196795e-09
3.2197432e-06
-2.2366104e-09
3.2203022e-06
-2.2760504e-09
3.2208708e-06
-2.3151041e-09
3.2214491e-06
-2.3537606e-09
3.2220368e-06
-2.392009e-09
3.2226339e-06
-2.4298382e-09
3.2232402e-06
-2.4672372e-09
3.2238558e-06
-2.5041945e-09
3.2244804e-06
-2.5406991e-09
3.225114e-06
-2.5767394e-09
3.2257564e-06
-2.6123041e-09
3.2264075e-06
-2.6473816e-09
3.2270672e-06
-2.6819606e-09
3.2277354e-06
-2.7160294e-09
3.228412e-06
-2.7495765e-09
3.2290967e-06
-2.7825903e-09
3.2297896e-06
-2.8150592e-09
3.2304904e-06
-2.8469716e-09
3.2311991e-06
-2.878316e-09
3.2319154e-06
-2.9090808e-09
3.2326393e-06
-2.9392544e-09
3.2333705e-06
-2.9688255e-09
3.234109e-06
-2.9977826e-09
3.2348545e-06
-3.0261144e-09
3.235607e-06
-3.0538096e-09
3.2363663e-06
-3.0808571e-09
3.2371322e-06
-3.1072457e-09
3.2379045e-06
-3.1329645e-09
3.2386831e-06
-3.1580027e-09
3.2394678e-06
-3.1823496e-09
3.2402584e-06
-3.2059945e-09
3.2410548e-06
-3.2289271e-09
3.2418568e-06
-3.2511371e-09
3.2426642e-06
-3.2726144e-09
3.2434768e-06
-3.2933492e-09
3.2442945e-06
-3.3133317e-09
3.245117e-06
-3.3325525e-09
3.2459441e-06
-3.3510024e-09
3.2467757e-06
-3.3686721e-09
3.2476116e-06
-3.385553e-09
3.2484515e-06
-3.4016364e-09
3.2492953e-06
-3.4169141e-09
3.2501428e-06
-3.4313781e-09
3.2509937e-06
-3.4450204e-09
3.2518479e-06
-3.4578337e-09
3.2527052e-06
-3.4698107e-09
3.2535652e-06
-3.4809446e-09
3.2544279e-06
-3.4912287e-09
3.255293e-06
-3.5006567e-09
3.2561603e-06
-3.5092228e-09
3.2570296e-06
-3.5169213e-09
3.2579007e-06
-3.5237468e-09
3.2587733e-06
-3.5296946e-09
3.2596472e-06
-3.53476e-09
3.2605222e-06
-3.5389388e-09
3.2613981e-06
-3.5422271e-09
3.2622746e-06
-3.5446216e-09
3.2631516e-06
-3.5461191e-09
3.2640288e-06
-3.5467169e-09
3.2649059e-06
-3.5464129e-09
3.2657828e-06
-3.5452052e-09
3.2666592e-06
-3.5430922e-09
3.2675349e-06
-3.540073e-09
3.2684096e-06
-3.536147e-09
3.2692832e-06
-3.5313142e-09
3.2701554e-06
-3.5255735e-09
3.271026e-06
-3.5189332e-09
3.2718947e-06
-3.5113555e-09
3.2727613e-06
-3.5030492e-09
3.2736255e-06
-3.4928956e-09
-3.4870566e-09
3.2744882e-06
3.1408807e-06
-2.9490978e-11
3.1408979e-06
-8.8517352e-11
3.1409267e-06
-1.4757643e-10
3.1409669e-06
-2.0664262e-10
3.1410186e-06
-2.6570773e-10
3.1410818e-06
-3.2476375e-10
3.1411565e-06
-3.8380274e-10
3.1412428e-06
-4.4281671e-10
3.1413405e-06
-5.0179767e-10
3.1414497e-06
-5.6073758e-10
3.1415704e-06
-6.1962833e-10
3.1417025e-06
-6.7846178e-10
3.1418462e-06
-7.3722971e-10
3.1420013e-06
-7.9592386e-10
3.1421678e-06
-8.5453587e-10
3.1423458e-06
-9.1305735e-10
3.1425351e-06
-9.7147983e-10
3.1427359e-06
-1.0297948e-09
3.1429481e-06
-1.0879936e-09
3.1431716e-06
-1.1460676e-09
3.1434064e-06
-1.204008e-09
3.1436526e-06
-1.2618059e-09
3.14391e-06
-1.3194525e-09
3.1441787e-06
-1.3769385e-09
3.1444587e-06
-1.434255e-09
3.1447498e-06
-1.4913925e-09
3.1450521e-06
-1.5483418e-09
3.1453656e-06
-1.6050933e-09
3.1456902e-06
-1.6616374e-09
3.1460258e-06
-1.7179643e-09
3.1463724e-06
-1.7740641e-09
3.14673e-06
-1.8299268e-09
3.1470986e-06
-1.8855422e-09
3.1474781e-06
-1.9408998e-09
3.1478684e-06
-1.9959892e-09
3.1482695e-06
-2.0507997e-09
3.1486813e-06
-2.1053203e-09
3.1491039e-06
-2.1595401e-09
3.149537e-06
-2.2134478e-09
3.1499808e-06
-2.267032e-09
3.1504351e-06
-2.3202811e-09
3.1508998e-06
-2.3731833e-09
3.1513749e-06
-2.4257267e-09
3.1518604e-06
-2.4778992e-09
3.1523561e-06
-2.5296883e-09
3.152862e-06
-2.5810817e-09
3.1533779e-06
-2.6320666e-09
3.153904e-06
-2.6826302e-09
3.1544399e-06
-2.7327594e-09
3.1549858e-06
-2.7824411e-09
3.1555414e-06
-2.831662e-09
3.1561067e-06
-2.8804086e-09
3.1566816e-06
-2.9286673e-09
3.157266e-06
-2.9764242e-09
3.1578598e-06
-3.0236656e-09
3.158463e-06
-3.0703773e-09
3.1590753e-06
-3.1165454e-09
3.1596968e-06
-3.1621556e-09
3.1603272e-06
-3.2071937e-09
3.1609666e-06
-3.2516451e-09
3.1616147e-06
-3.2954956e-09
3.1622715e-06
-3.3387305e-09
3.1629368e-06
-3.3813354e-09
3.1636105e-06
-3.4232955e-09
3.1642925e-06
-3.4645964e-09
3.1649826e-06
-3.5052233e-09
3.1656808e-06
-3.5451616e-09
3.1663869e-06
-3.5843967e-09
3.1671008e-06
-3.6229139e-09
3.1678222e-06
-3.6606987e-09
3.1685511e-06
-3.6977366e-09
3.1692873e-06
-3.734013e-09
3.1700307e-06
-3.7695135e-09
3.1707812e-06
-3.8042239e-09
3.1715384e-06
-3.83813e-09
3.1723024e-06
-3.8712176e-09
3.1730729e-06
-3.9034728e-09
3.1738498e-06
-3.9348818e-09
3.1746329e-06
-3.9654309e-09
3.175422e-06
-3.9951067e-09
3.1762169e-06
-4.0238958e-09
3.1770176e-06
-4.0517852e-09
3.1778237e-06
-4.0787619e-09
3.1786352e-06
-4.1048133e-09
3.1794518e-06
-4.129927e-09
3.1802733e-06
-4.1540908e-09
3.1810996e-06
-4.1772927e-09
3.1819305e-06
-4.1995212e-09
3.1827657e-06
-4.220765e-09
3.1836051e-06
-4.2410129e-09
3.1844484e-06
-4.2602543e-09
3.1852955e-06
-4.2784787e-09
3.1861462e-06
-4.2956761e-09
3.1870002e-06
-4.3118369e-09
3.1878573e-06
-4.3269516e-09
3.1887174e-06
-4.3410112e-09
3.1895802e-06
-4.3540073e-09
3.1904454e-06
-4.3659316e-09
3.191313e-06
-4.3767764e-09
3.1921826e-06
-4.3865343e-09
3.193054e-06
-4.3951982e-09
3.1939271e-06
-4.4027618e-09
3.1948016e-06
-4.409219e-09
3.1956772e-06
-4.4145642e-09
3.1965538e-06
-4.4187923e-09
3.197431e-06
-4.4218986e-09
3.1983088e-06
-4.423879e-09
3.1991868e-06
-4.4247299e-09
3.2000649e-06
-4.4244481e-09
3.2009427e-06
-4.423031e-09
3.2018201e-06
-4.4204765e-09
3.2026968e-06
-4.4167831e-09
3.2035726e-06
-4.4119496e-09
3.2044472e-06
-4.4059761e-09
3.2053205e-06
-4.3988608e-09
3.2061922e-06
-4.3906137e-09
3.207062e-06
-4.3811873e-09
3.2079298e-06
-4.3708448e-09
3.2087951e-06
-4.3581732e-09
-4.3509498e-09
3.209659e-06
3.0775402e-06
-3.5183825e-11
3.0775572e-06
-1.0560348e-10
3.0775857e-06
-1.7606243e-10
3.0776256e-06
-2.4653205e-10
3.0776769e-06
-3.170031e-10
3.0777396e-06
-3.8746646e-10
3.0778137e-06
-4.57913e-10
3.0778992e-06
-5.2833355e-10
3.0779962e-06
-5.9871888e-10
3.0781045e-06
-6.6905967e-10
3.0782242e-06
-7.3934658e-10
3.0783553e-06
-8.0957012e-10
3.0784978e-06
-8.7972077e-10
3.0786517e-06
-9.4978888e-10
3.0788169e-06
-1.0197647e-09
3.0789935e-06
-1.0896385e-09
3.0791814e-06
-1.1594004e-09
3.0793806e-06
-1.2290404e-09
3.0795912e-06
-1.2985484e-09
3.079813e-06
-1.3679143e-09
3.0800462e-06
-1.4371277e-09
3.0802905e-06
-1.5061783e-09
3.0805461e-06
-1.5750556e-09
3.0808129e-06
-1.643749e-09
3.0810909e-06
-1.7122475e-09
3.0813801e-06
-1.7805405e-09
3.0816804e-06
-1.8486167e-09
3.0819917e-06
-1.916465e-09
3.0823142e-06
-1.9840741e-09
3.0826476e-06
-2.0514323e-09
3.0829921e-06
-2.1185279e-09
3.0833475e-06
-2.1853491e-09
3.0837139e-06
-2.2518838e-09
3.0840911e-06
-2.3181196e-09
3.0844791e-06
-2.3840441e-09
3.084878e-06
-2.4496444e-09
3.0852876e-06
-2.5149078e-09
3.0857079e-06
-2.579821e-09
3.0861388e-06
-2.6443707e-09
3.0865803e-06
-2.7085432e-09
3.0870323e-06
-2.7723247e-09
3.0874949e-06
-2.8357011e-09
3.0879678e-06
-2.8986582e-09
3.0884511e-06
-2.9611813e-09
3.0889446e-06
-3.0232558e-09
3.0894484e-06
-3.0848666e-09
3.0899623e-06
-3.1459985e-09
3.0904864e-06
-3.2066361e-09
3.0910204e-06
-3.2667638e-09
3.0915643e-06
-3.3263656e-09
3.092118e-06
-3.3854256e-09
3.0926816e-06
-3.4439275e-09
3.0932548e-06
-3.5018548e-09
3.0938375e-06
-3.5591911e-09
3.0944298e-06
-3.6159194e-09
3.0950314e-06
-3.672023e-09
3.0956424e-06
-3.7274847e-09
3.0962625e-06
-3.7822874e-09
3.0968917e-06
-3.8364137e-09
3.0975299e-06
-3.8898463e-09
3.098177e-06
-3.9425675e-09
3.0988328e-06
-3.9945598e-09
3.0994973e-06
-4.0458056e-09
3.1001703e-06
-4.0962869e-09
3.1008517e-06
-4.1459862e-09
3.1015413e-06
-4.1948855e-09
3.1022391e-06
-4.242967e-09
3.102945e-06
-4.2902128e-09
3.1036586e-06
-4.3366052e-09
3.1043801e-06
-4.3821262e-09
3.1051091e-06
-4.4267583e-09
3.1058456e-06
-4.4704836e-09
3.1065893e-06
-4.5132845e-09
3.1073403e-06
-4.5551435e-09
3.1080982e-06
-4.5960433e-09
3.1088629e-06
-4.6359665e-09
3.1096343e-06
-4.674896e-09
3.1104123e-06
-4.7128147e-09
3.1111965e-06
-4.749706e-09
3.111987e-06
-4.7855532e-09
3.1127834e-06
-4.8203399e-09
3.1135857e-06
-4.85405e-09
3.1143936e-06
-4.8866674e-09
3.115207e-06
-4.9181767e-09
3.1160256e-06
-4.9485624e-09
3.1168493e-06
-4.9778095e-09
3.1176779e-06
-5.0059031e-09
3.1185112e-06
-5.0328288e-09
3.1193491e-06
-5.0585726e-09
3.1201912e-06
-5.0831206e-09
3.1210374e-06
-5.1064596e-09
3.1218875e-06
-5.1285765e-09
3.1227412e-06
-5.1494588e-09
3.1235985e-06
-5.1690944e-09
3.124459e-06
-5.1874714e-09
3.1253226e-06
-5.2045787e-09
3.126189e-06
-5.2204054e-09
3.127058e-06
-5.2349412e-09
3.1279294e-06
-5.2481762e-09
3.128803e-06
-5.2601012e-09
3.1296785e-06
-5.2707072e-09
3.1305557e-06
-5.279986e-09
3.1314344e-06
-5.2879299e-09
3.1323144e-06
-5.2945316e-09
3.1331954e-06
-5.2997846e-09
3.1340772e-06
-5.3036827e-09
3.1349595e-06
-5.3062206e-09
3.1358422e-06
-5.3073934e-09
3.1367249e-06
-5.3071969e-09
3.1376075e-06
-5.3056275e-09
3.1384897e-06
-5.3026823e-09
3.1393713e-06
-5.2983591e-09
3.140252e-06
-5.2926561e-09
3.1411316e-06
-5.2855729e-09
3.1420098e-06
-5.277107e-09
3.1428865e-06
-5.2672705e-09
3.1437613e-06
-5.2560045e-09
3.1446341e-06
-5.2436305e-09
3.1455043e-06
-5.228423e-09
-5.2198692e-09
3.1463733e-06
3.015477e-06
-4.0837343e-11
3.0154939e-06
-1.2257085e-10
3.0155222e-06
-2.0435011e-10
3.0155618e-06
-2.8614438e-10
3.0156128e-06
-3.6794341e-10
3.0156751e-06
-4.4973711e-10
3.0157487e-06
-5.3151535e-10
3.0158336e-06
-6.1326791e-10
3.0159299e-06
-6.9498452e-10
3.0160375e-06
-7.766548e-10
3.0161564e-06
-8.5826827e-10
3.0162866e-06
-9.3981435e-10
3.0164282e-06
-1.0212823e-09
3.0165811e-06
-1.1026614e-09
3.0167452e-06
-1.1839406e-09
3.0169207e-06
-1.265109e-09
3.0171075e-06
-1.3461554e-09
3.0173055e-06
-1.4270685e-09
3.0175148e-06
-1.5078369e-09
3.0177353e-06
-1.5884492e-09
3.0179671e-06
-1.6688937e-09
3.0182101e-06
-1.7491586e-09
3.0184642e-06
-1.8292319e-09
3.0187296e-06
-1.9091015e-09
3.0190061e-06
-1.9887552e-09
3.0192937e-06
-2.0681806e-09
3.0195925e-06
-2.1473649e-09
3.0199023e-06
-2.2262955e-09
3.0202232e-06
-2.3049592e-09
3.0205551e-06
-2.3833428e-09
3.020898e-06
-2.461433e-09
3.0212519e-06
-2.5392159e-09
3.0216167e-06
-2.6166777e-09
3.0219924e-06
-2.6938042e-09
3.0223789e-06
-2.770581e-09
3.0227762e-06
-2.8469934e-09
3.0231844e-06
-2.9230264e-09
3.0236032e-06
-2.9986649e-09
3.0240327e-06
-3.0738933e-09
3.0244729e-06
-3.1486958e-09
3.0249236e-06
-3.2230564e-09
3.0253849e-06
-3.2969588e-09
3.0258566e-06
-3.3703861e-09
3.0263387e-06
-3.4433217e-09
3.0268312e-06
-3.5157481e-09
3.027334e-06
-3.587648e-09
3.027847e-06
-3.6590036e-09
3.0283702e-06
-3.7297968e-09
3.0289034e-06
-3.8000093e-09
3.0294467e-06
-3.8696226e-09
3.0299999e-06
-3.9386179e-09
3.0305629e-06
-4.006976e-09
3.0311357e-06
-4.0746778e-09
3.0317183e-06
-4.1417036e-09
3.0323104e-06
-4.2080339e-09
3.032912e-06
-4.2736487e-09
3.033523e-06
-4.3385278e-09
3.0341434e-06
-4.4026511e-09
3.034773e-06
-4.465998e-09
3.0354117e-06
-4.528548e-09
3.0360594e-06
-4.5902804e-09
3.036716e-06
-4.6511744e-09
3.0373814e-06
-4.711209e-09
3.0380555e-06
-4.7703631e-09
3.0387381e-06
-4.8286158e-09
3.0394292e-06
-4.8859458e-09
3.0401285e-06
-4.9423318e-09
3.0408361e-06
-4.9977528e-09
3.0415517e-06
-5.0521875e-09
3.0422752e-06
-5.1056146e-09
3.0430064e-06
-5.1580131e-09
3.0437453e-06
-5.2093617e-09
3.0444916e-06
-5.2596395e-09
3.0452453e-06
-5.3088255e-09
3.0460062e-06
-5.3568989e-09
3.0467741e-06
-5.4038389e-09
3.0475488e-06
-5.449625e-09
3.0483302e-06
-5.4942369e-09
3.0491182e-06
-5.5376544e-09
3.0499125e-06
-5.5798575e-09
3.0507129e-06
-5.6208265e-09
3.0515194e-06
-5.6605418e-09
3.0523318e-06
-5.6989845e-09
3.0531497e-06
-5.7361354e-09
3.0539731e-06
-5.771976e-09
3.0548018e-06
-5.8064882e-09
3.0556356e-06
-5.8396539e-09
3.0564742e-06
-5.8714557e-09
3.0573175e-06
-5.9018764e-09
3.0581653e-06
-5.9308993e-09
3.0590173e-06
-5.9585081e-09
3.0598734e-06
-5.984687e-09
3.0607334e-06
-6.0094206e-09
3.061597e-06
-6.032694e-09
3.062464e-06
-6.0544928e-09
3.0633342e-06
-6.0748032e-09
3.0642074e-06
-6.0936118e-09
3.0650834e-06
-6.110906e-09
3.0659619e-06
-6.1266734e-09
3.0668427e-06
-6.1409026e-09
3.0677256e-06
-6.1535824e-09
3.0686103e-06
-6.1647026e-09
3.0694966e-06
-6.1742534e-09
3.0703843e-06
-6.1822258e-09
3.0712731e-06
-6.1886113e-09
3.0721629e-06
-6.1934023e-09
3.0730532e-06
-6.1965918e-09
3.073944e-06
-6.1981735e-09
3.074835e-06
-6.1981418e-09
3.0757258e-06
-6.1964921e-09
3.0766164e-06
-6.1932202e-09
3.0775063e-06
-6.188323e-09
3.0783955e-06
-6.1817979e-09
3.0792835e-06
-6.173644e-09
3.0801703e-06
-6.1638577e-09
3.0810555e-06
-6.1524529e-09
3.0819388e-06
-6.1393589e-09
3.0828202e-06
-6.124959e-09
3.0836989e-06
-6.1071937e-09
-6.0973737e-09
3.0845764e-06
2.9546654e-06
-4.6456556e-11
2.9546823e-06
-1.3943543e-10
2.9547104e-06
-2.3246697e-10
2.9547498e-06
-3.2551879e-10
2.9548004e-06
-4.1857987e-10
2.9548623e-06
-5.1163927e-10
2.9549355e-06
-6.0468605e-10
2.9550199e-06
-6.9770913e-10
2.9551156e-06
-7.9069737e-10
2.9552226e-06
-8.8363949e-10
2.9553409e-06
-9.7652409e-10
2.9554704e-06
-1.0693396e-09
2.9556112e-06
-1.1620744e-09
2.9557632e-06
-1.2547167e-09
2.9559266e-06
-1.3472544e-09
2.9561011e-06
-1.4396755e-09
2.9562869e-06
-1.5319677e-09
2.956484e-06
-1.6241186e-09
2.9566923e-06
-1.7161158e-09
2.9569118e-06
-1.8079465e-09
2.9571425e-06
-1.8995978e-09
2.9573844e-06
-1.9910566e-09
2.9576374e-06
-2.0823098e-09
2.9579017e-06
-2.1733439e-09
2.9581771e-06
-2.2641453e-09
2.9584636e-06
-2.3547e-09
2.9587612e-06
-2.4449941e-09
2.9590699e-06
-2.5350131e-09
2.9593897e-06
-2.6247426e-09
2.9597205e-06
-2.7141677e-09
2.9600624e-06
-2.8032733e-09
2.9604152e-06
-2.8920441e-09
2.960779e-06
-2.9804643e-09
2.9611537e-06
-3.068518e-09
2.9615393e-06
-3.156189e-09
2.9619358e-06
-3.2434607e-09
2.9623431e-06
-3.330316e-09
2.9627612e-06
-3.4167379e-09
2.96319e-06
-3.5027087e-09
2.9636295e-06
-3.5882104e-09
2.9640796e-06
-3.6732248e-09
2.9645404e-06
-3.7577333e-09
2.9650118e-06
-3.8417169e-09
2.9654936e-06
-3.9251563e-09
2.9659859e-06
-4.0080319e-09
2.9664885e-06
-4.0903235e-09
2.9670016e-06
-4.172011e-09
2.9675248e-06
-4.2530735e-09
2.9680583e-06
-4.3334902e-09
2.9686019e-06
-4.4132396e-09
2.9691556e-06
-4.4923002e-09
2.9697193e-06
-4.5706501e-09
2.9702929e-06
-4.6482669e-09
2.9708763e-06
-4.7251283e-09
2.9714695e-06
-4.8012115e-09
2.9720723e-06
-4.8764935e-09
2.9726847e-06
-4.950951e-09
2.9733067e-06
-5.0245606e-09
2.973938e-06
-5.0972986e-09
2.9745786e-06
-5.1691412e-09
2.9752283e-06
-5.2400643e-09
2.9758872e-06
-5.3100436e-09
2.976555e-06
-5.3790549e-09
2.9772318e-06
-5.4470738e-09
2.9779172e-06
-5.5140755e-09
2.9786113e-06
-5.5800354e-09
2.9793139e-06
-5.6449288e-09
2.9800249e-06
-5.708731e-09
2.9807441e-06
-5.771417e-09
2.9814715e-06
-5.8329621e-09
2.9822068e-06
-5.8933415e-09
2.98295e-06
-5.9525303e-09
2.9837008e-06
-6.010504e-09
2.9844592e-06
-6.067238e-09
2.985225e-06
-6.1227076e-09
2.9859981e-06
-6.1768885e-09
2.9867782e-06
-6.2297566e-09
2.9875653e-06
-6.2812877e-09
2.9883591e-06
-6.3314581e-09
2.9891595e-06
-6.3802442e-09
2.9899663e-06
-6.4276225e-09
2.9907793e-06
-6.4735701e-09
2.9915984e-06
-6.5180641e-09
2.9924233e-06
-6.5610821e-09
2.9932539e-06
-6.602602e-09
2.9940901e-06
-6.6426021e-09
2.9949315e-06
-6.6810609e-09
2.995778e-06
-6.7179576e-09
2.9966294e-06
-6.7532717e-09
2.9974854e-06
-6.7869831e-09
2.998346e-06
-6.8190723e-09
2.9992108e-06
-6.8495203e-09
3.0000797e-06
-6.8783085e-09
3.0009525e-06
-6.9054191e-09
3.0018288e-06
-6.9308345e-09
3.0027085e-06
-6.9545381e-09
3.0035914e-06
-6.9765136e-09
3.0044773e-06
-6.9967456e-09
3.0053658e-06
-7.0152192e-09
3.0062568e-06
-7.0319201e-09
3.0071501e-06
-7.0468348e-09
3.0080453e-06
-7.0599508e-09
3.0089423e-06
-7.0712558e-09
3.0098409e-06
-7.0807387e-09
3.0107406e-06
-7.0883889e-09
3.0116414e-06
-7.0941968e-09
3.012543e-06
-7.0981535e-09
3.0134451e-06
-7.1002511e-09
3.0143474e-06
-7.1004823e-09
3.0152498e-06
-7.098841e-09
3.0161519e-06
-7.0953216e-09
3.0170535e-06
-7.08992e-09
3.0179543e-06
-7.0826323e-09
3.0188541e-06
-7.0734568e-09
3.0197526e-06
-7.0623886e-09
3.0206496e-06
-7.0494434e-09
3.0215448e-06
-7.0345375e-09
3.022438e-06
-7.0181205e-09
3.0233285e-06
-6.9977736e-09
-6.9867642e-09
3.0242179e-06
2.8950802e-06
-5.2045721e-11
2.895097e-06
-1.562098e-10
2.8951249e-06
-2.6043386e-10
2.8951641e-06
-3.6468455e-10
2.8952145e-06
-4.6895024e-10
2.895276e-06
-5.7321942e-10
2.8953488e-06
-6.7748046e-10
2.8954329e-06
-7.8172167e-10
2.8955281e-06
-8.8593121e-10
2.8956345e-06
-9.9009709e-10
2.8957522e-06
-1.0942072e-09
2.8958811e-06
-1.1982493e-09
2.8960213e-06
-1.3022108e-09
2.8961726e-06
-1.4060791e-09
2.8963352e-06
-1.5098413e-09
2.896509e-06
-1.6134846e-09
2.8966941e-06
-1.7169958e-09
2.8968903e-06
-1.8203614e-09
2.8970978e-06
-1.9235681e-09
2.8973164e-06
-2.026602e-09
2.8975463e-06
-2.1294492e-09
2.8977873e-06
-2.2320955e-09
2.8980395e-06
-2.3345267e-09
2.8983029e-06
-2.436728e-09
2.8985774e-06
-2.5386845e-09
2.8988631e-06
-2.6403812e-09
2.8991599e-06
-2.7418026e-09
2.8994679e-06
-2.8429331e-09
2.8997869e-06
-2.9437565e-09
2.900117e-06
-3.0442568e-09
2.9004581e-06
-3.1444171e-09
2.9008103e-06
-3.2442206e-09
2.9011735e-06
-3.3436498e-09
2.9015476e-06
-3.4426873e-09
2.9019328e-06
-3.5413148e-09
2.9023288e-06
-3.6395139e-09
2.9027358e-06
-3.7372659e-09
2.9031536e-06
-3.8345515e-09
2.9035822e-06
-3.9313511e-09
2.9040217e-06
-4.0276447e-09
2.9044718e-06
-4.1234118e-09
2.9049327e-06
-4.2186315e-09
2.9054043e-06
-4.3132826e-09
2.9058865e-06
-4.4073434e-09
2.9063793e-06
-4.5007917e-09
2.9068825e-06
-4.593605e-09
2.9073963e-06
-4.6857605e-09
2.9079204e-06
-4.7772346e-09
2.908455e-06
-4.8680038e-09
2.9089998e-06
-4.9580439e-09
2.9095548e-06
-5.0473304e-09
2.91012e-06
-5.1358384e-09