/*--------------------------------*- C++ -*----------------------------------*\
| =========                 |                                                 |
| \\      /  F ield         | OpenFOAM: The Open Source CFD Toolbox           |
|  \\    /   O peration     | Version:  v2012                                 |
|   \\  /    A nd           | Website:  www.openfoam.com                      |
|    \\/     M anipulation  |                                                 |
\*---------------------------------------------------------------------------*/
FoamFile
{
    version     2.0;
    format      ascii;
    class       surfaceScalarField;
    location    "100";
    object      phi_0;
}
// * * * * * * * * * * * * * * * * * * * * * * * * * * * * * * * * * * * * * //

dimensions      [0 3 -1 0 0 0 0];
oriented        oriented;


internalField   nonuniform List<scalar> 
245560
(
3.4075507e-06
-6.2764862e-12
3.4075694e-06
-1.8656911e-11
3.4076003e-06
-3.0939858e-11
3.4076435e-06
-4.3204219e-11
3.407699e-06
-5.5452731e-11
3.4077667e-06
-6.7684024e-11
3.4078466e-06
-7.9897883e-11
3.4079387e-06
-9.2094749e-11
3.408043e-06
-1.0427474e-10
3.4081594e-06
-1.1643748e-10
3.408288e-06
-1.2858226e-10
3.4084287e-06
-1.4070822e-10
3.4085815e-06
-1.5281436e-10
3.4087464e-06
-1.6489954e-10
3.4089234e-06
-1.7696252e-10
3.4091124e-06
-1.8900194e-10
3.4093134e-06
-2.0101638e-10
3.4095264e-06
-2.1300434e-10
3.4097513e-06
-2.2496424e-10
3.4099882e-06
-2.3689445e-10
3.410237e-06
-2.487933e-10
3.4104977e-06
-2.6065906e-10
3.4107702e-06
-2.7248996e-10
3.4110545e-06
-2.842842e-10
3.4113505e-06
-2.9603992e-10
3.4116583e-06
-3.0775525e-10
3.4119777e-06
-3.1942827e-10
3.4123087e-06
-3.3105704e-10
3.4126514e-06
-3.4263957e-10
3.4130056e-06
-3.5417385e-10
3.4133712e-06
-3.6565783e-10
3.4137483e-06
-3.7708944e-10
3.4141368e-06
-3.8846656e-10
3.4145366e-06
-3.9978706e-10
3.4149476e-06
-4.1104875e-10
3.4153699e-06
-4.2224942e-10
3.4158032e-06
-4.3338683e-10
3.4162477e-06
-4.4445871e-10
3.4167032e-06
-4.5546274e-10
3.4171696e-06
-4.6639658e-10
3.4176468e-06
-4.7725784e-10
3.4181349e-06
-4.8804411e-10
3.4186336e-06
-4.9875296e-10
3.419143e-06
-5.0938188e-10
3.4196629e-06
-5.1992838e-10
3.4201933e-06
-5.3038991e-10
3.4207341e-06
-5.4076389e-10
3.4212851e-06
-5.5104772e-10
3.4218464e-06
-5.6123876e-10
3.4224177e-06
-5.7133435e-10
3.422999e-06
-5.813318e-10
3.4235903e-06
-5.912284e-10
3.4241913e-06
-6.0102142e-10
3.424802e-06
-6.1070808e-10
3.4254223e-06
-6.2028563e-10
3.426052e-06
-6.2975125e-10
3.4266911e-06
-6.3910213e-10
3.4273395e-06
-6.4833545e-10
3.4279969e-06
-6.5744837e-10
3.4286634e-06
-6.6643803e-10
3.4293387e-06
-6.7530158e-10
3.4300227e-06
-6.8403614e-10
3.4307153e-06
-6.9263885e-10
3.4314164e-06
-7.0110683e-10
3.4321259e-06
-7.094372e-10
3.4328435e-06
-7.176271e-10
3.4335692e-06
-7.2567365e-10
3.4343027e-06
-7.33574e-10
3.4350441e-06
-7.4132529e-10
3.435793e-06
-7.4892469e-10
3.4365494e-06
-7.5636938e-10
3.437313e-06
-7.6365654e-10
3.4380838e-06
-7.7078339e-10
3.4388616e-06
-7.7774717e-10
3.4396461e-06
-7.8454513e-10
3.4404373e-06
-7.9117459e-10
3.4412349e-06
-7.9763284e-10
3.4420388e-06
-8.0391725e-10
3.4428489e-06
-8.1002521e-10
3.4436648e-06
-8.1595416e-10
3.4444865e-06
-8.2170155e-10
3.4453138e-06
-8.2726491e-10
3.4461464e-06
-8.326418e-10
3.4469842e-06
-8.3782982e-10
3.4478271e-06
-8.4282665e-10
3.4486747e-06
-8.4762999e-10
3.4495269e-06
-8.5223762e-10
3.4503836e-06
-8.5664737e-10
3.4512444e-06
-8.6085713e-10
3.4521093e-06
-8.6486487e-10
3.452978e-06
-8.6866859e-10
3.4538502e-06
-8.7226639e-10
3.4547259e-06
-8.7565643e-10
3.4556047e-06
-8.7883694e-10
3.4564865e-06
-8.8180623e-10
3.4573711e-06
-8.8456269e-10
3.4582582e-06
-8.8710478e-10
3.4591476e-06
-8.8943104e-10
3.4600392e-06
-8.9154011e-10
3.4609326e-06
-8.9343071e-10
3.4618277e-06
-8.9510162e-10
3.4627243e-06
-8.9655177e-10
3.463622e-06
-8.9778011e-10
3.4645208e-06
-8.9878575e-10
3.4654204e-06
-8.9956786e-10
3.4663205e-06
-9.0012575e-10
3.467221e-06
-9.0045882e-10
3.4681216e-06
-9.0056658e-10
3.469022e-06
-9.0044867e-10
3.4699221e-06
-9.0010481e-10
3.4708216e-06
-8.995349e-10
3.4717204e-06
-8.9873895e-10
3.4726181e-06
-8.977171e-10
3.4735146e-06
-8.9646977e-10
3.4744096e-06
-8.9499703e-10
3.4753029e-06
-8.9330164e-10
3.4761942e-06
-8.9137395e-10
3.4770835e-06
-8.8927109e-10
3.4779702e-06
-8.866912e-10
-8.8530439e-10
3.4788555e-06
3.338832e-06
-1.2074929e-11
3.3388496e-06
-3.6292712e-11
3.3388792e-06
-6.0532653e-11
3.3389208e-06
-8.4754709e-11
3.3389743e-06
-1.0896173e-10
3.3390397e-06
-1.3315305e-10
3.3391172e-06
-1.5732612e-10
3.3392066e-06
-1.8147832e-10
3.3393079e-06
-2.0560726e-10
3.3394212e-06
-2.2971048e-10
3.3395464e-06
-2.5378532e-10
3.3396835e-06
-2.7782897e-10
3.3398325e-06
-3.0183847e-10
3.3399934e-06
-3.2581079e-10
3.3401662e-06
-3.4974278e-10
3.3403508e-06
-3.7363124e-10
3.3405473e-06
-3.9747287e-10
3.3407555e-06
-4.2126432e-10
3.3409756e-06
-4.4500216e-10
3.3412074e-06
-4.6868291e-10
3.3414509e-06
-4.9230303e-10
3.3417061e-06
-5.1585893e-10
3.3419729e-06
-5.3934695e-10
3.3422514e-06
-5.6276341e-10
3.3425415e-06
-5.8610453e-10
3.3428431e-06
-6.0936653e-10
3.3431562e-06
-6.3254555e-10
3.3434808e-06
-6.5563767e-10
3.3438168e-06
-6.7863893e-10
3.3441642e-06
-7.0154532e-10
3.3445229e-06
-7.2435275e-10
3.3448928e-06
-7.470571e-10
3.345274e-06
-7.6965416e-10
3.3456664e-06
-7.9213968e-10
3.3460698e-06
-8.1450934e-10
3.3464843e-06
-8.3675875e-10
3.3469098e-06
-8.5888347e-10
3.3473462e-06
-8.8087898e-10
3.3477935e-06
-9.0274071e-10
3.3482516e-06
-9.2446398e-10
3.3487204e-06
-9.4604411e-10
3.3491998e-06
-9.6747628e-10
3.3496898e-06
-9.8875566e-10
3.3501903e-06
-1.0098773e-09
3.3507012e-06
-1.0308363e-09
3.3512225e-06
-1.0516275e-09
3.3517539e-06
-1.0722459e-09
3.3522956e-06
-1.0926862e-09
3.3528473e-06
-1.1129432e-09
3.353409e-06
-1.1330117e-09
3.3539805e-06
-1.1528863e-09
3.3545618e-06
-1.1725616e-09
3.3551529e-06
-1.1920322e-09
3.3557534e-06
-1.2112926e-09
3.3563635e-06
-1.2303372e-09
3.3569829e-06
-1.2491605e-09
3.3576116e-06
-1.2677569e-09
3.3582493e-06
-1.2861207e-09
3.3588961e-06
-1.3042463e-09
3.3595518e-06
-1.3221281e-09
3.3602163e-06
-1.3397603e-09
3.3608894e-06
-1.3571372e-09
3.361571e-06
-1.374253e-09
3.362261e-06
-1.3911021e-09
3.3629592e-06
-1.4076787e-09
3.3636656e-06
-1.4239771e-09
3.3643799e-06
-1.4399916e-09
3.3651021e-06
-1.4557163e-09
3.3658319e-06
-1.4711457e-09
3.3665692e-06
-1.4862741e-09
3.367314e-06
-1.5010958e-09
3.3680659e-06
-1.5156053e-09
3.3688249e-06
-1.5297968e-09
3.3695908e-06
-1.5436651e-09
3.3703635e-06
-1.5572044e-09
3.3711427e-06
-1.5704095e-09
3.3719284e-06
-1.5832749e-09
3.3727202e-06
-1.5957954e-09
3.3735182e-06
-1.6079657e-09
3.374322e-06
-1.6197807e-09
3.3751315e-06
-1.6312353e-09
3.3759466e-06
-1.6423246e-09
3.376767e-06
-1.6530436e-09
3.3775926e-06
-1.6633875e-09
3.3784231e-06
-1.6733517e-09
3.3792584e-06
-1.6829315e-09
3.3800983e-06
-1.6921226e-09
3.3809426e-06
-1.7009204e-09
3.381791e-06
-1.7093209e-09
3.3826435e-06
-1.7173198e-09
3.3834997e-06
-1.7249132e-09
3.3843595e-06
-1.7320972e-09
3.3852228e-06
-1.7388681e-09
3.3860891e-06
-1.7452224e-09
3.3869585e-06
-1.7511567e-09
3.3878306e-06
-1.7566676e-09
3.3887052e-06
-1.761752e-09
3.3895822e-06
-1.766407e-09
3.3904613e-06
-1.7706298e-09
3.3913423e-06
-1.7744178e-09
3.392225e-06
-1.7777685e-09
3.3931091e-06
-1.7806796e-09
3.3939945e-06
-1.7831491e-09
3.3948809e-06
-1.785175e-09
3.395768e-06
-1.7867557e-09
3.3966558e-06
-1.7878894e-09
3.3975439e-06
-1.788575e-09
3.3984322e-06
-1.7888112e-09
3.3993203e-06
-1.788597e-09
3.4002081e-06
-1.7879318e-09
3.4010954e-06
-1.7868149e-09
3.4019819e-06
-1.785246e-09
3.4028674e-06
-1.783225e-09
3.4037517e-06
-1.7807519e-09
3.4046345e-06
-1.7778263e-09
3.4055157e-06
-1.7744525e-09
3.4063949e-06
-1.7706113e-09
3.4072721e-06
-1.7664085e-09
3.4081467e-06
-1.7612766e-09
-1.7583451e-09
3.4090197e-06
3.2714996e-06
-1.7958401e-11
3.2715172e-06
-5.3902598e-11
3.2715465e-06
-8.986339e-11
3.2715876e-06
-1.2582292e-10
3.2716404e-06
-1.6177578e-10
3.271705e-06
-1.9771746e-10
3.2717813e-06
-2.3364321e-10
3.2718694e-06
-2.6954812e-10
3.2719692e-06
-3.0542723e-10
3.2720807e-06
-3.4127561e-10
3.2722041e-06
-3.7708832e-10
3.2723391e-06
-4.128604e-10
3.2724858e-06
-4.4858683e-10
3.2726443e-06
-4.8426252e-10
3.2728144e-06
-5.198824e-10
3.2729962e-06
-5.5544129e-10
3.2731897e-06
-5.9093403e-10
3.2733948e-06
-6.2635536e-10
3.2736115e-06
-6.6169999e-10
3.2738398e-06
-6.9696259e-10
3.2740796e-06
-7.3213775e-10
3.274331e-06
-7.6722003e-10
3.2745938e-06
-8.0220392e-10
3.2748681e-06
-8.3708384e-10
3.2751539e-06
-8.7185415e-10
3.275451e-06
-9.0650917e-10
3.2757595e-06
-9.4104312e-10
3.2760793e-06
-9.7545015e-10
3.2764104e-06
-1.0097244e-09
3.2767527e-06
-1.0438598e-09
3.2771062e-06
-1.0778503e-09
3.2774709e-06
-1.1116897e-09
3.2778466e-06
-1.1453718e-09
3.2782333e-06
-1.1788903e-09
3.2786311e-06
-1.2122387e-09
3.2790397e-06
-1.2454105e-09
3.2794592e-06
-1.2783991e-09
3.2798896e-06
-1.3111977e-09
3.2803306e-06
-1.3437995e-09
3.2807823e-06
-1.3761976e-09
3.2812447e-06
-1.4083849e-09
3.2817176e-06
-1.4403544e-09
3.2822009e-06
-1.4720987e-09
3.2826946e-06
-1.5036105e-09
3.2831987e-06
-1.5348824e-09
3.283713e-06
-1.5659069e-09
3.2842374e-06
-1.5966763e-09
3.2847719e-06
-1.6271829e-09
3.2853164e-06
-1.6574188e-09
3.2858707e-06
-1.6873762e-09
3.2864349e-06
-1.7170471e-09
3.2870088e-06
-1.7464233e-09
3.2875922e-06
-1.7754968e-09
3.2881852e-06
-1.8042593e-09
3.2887876e-06
-1.8327025e-09
3.2893992e-06
-1.8608181e-09
3.2900201e-06
-1.8885978e-09
3.29065e-06
-1.916033e-09
3.2912888e-06
-1.9431152e-09
3.2919365e-06
-1.969836e-09
3.292593e-06
-1.9961868e-09
3.293258e-06
-2.022159e-09
3.2939315e-06
-2.0477439e-09
3.2946133e-06
-2.072933e-09
3.2953034e-06
-2.0977177e-09
3.2960015e-06
-2.1220893e-09
3.2967075e-06
-2.1460392e-09
3.2974214e-06
-2.1695588e-09
3.2981428e-06
-2.1926395e-09
3.2988718e-06
-2.2152728e-09
3.2996082e-06
-2.2374502e-09
3.3003518e-06
-2.2591631e-09
3.3011024e-06
-2.2804033e-09
3.3018599e-06
-2.3011624e-09
3.3026241e-06
-2.321432e-09
3.3033949e-06
-2.341204e-09
3.3041721e-06
-2.3604704e-09
3.3049555e-06
-2.379223e-09
3.305745e-06
-2.397454e-09
3.3065404e-06
-2.4151556e-09
3.3073415e-06
-2.4323201e-09
3.3081481e-06
-2.4489399e-09
3.30896e-06
-2.4650077e-09
3.3097772e-06
-2.4805161e-09
3.3105993e-06
-2.4954581e-09
3.3114262e-06
-2.5098267e-09
3.3122577e-06
-2.5236151e-09
3.3130936e-06
-2.5368165e-09
3.3139337e-06
-2.5494247e-09
3.3147778e-06
-2.5614333e-09
3.3156257e-06
-2.5728363e-09
3.3164772e-06
-2.5836277e-09
3.3173322e-06
-2.5938019e-09
3.3181903e-06
-2.6033535e-09
3.3190514e-06
-2.6122772e-09
3.3199153e-06
-2.6205681e-09
3.3207818e-06
-2.6282212e-09
3.3216506e-06
-2.6352322e-09
3.3225216e-06
-2.6415966e-09
3.3233945e-06
-2.6473105e-09
3.3242691e-06
-2.6523701e-09
3.3251452e-06
-2.6567718e-09
3.3260225e-06
-2.6605123e-09
3.3269009e-06
-2.6635888e-09
3.3277802e-06
-2.6659985e-09
3.32866e-06
-2.6677389e-09
3.3295403e-06
-2.668808e-09
3.3304207e-06
-2.6692038e-09
3.331301e-06
-2.6689248e-09
3.332181e-06
-2.6679698e-09
3.3330605e-06
-2.6663379e-09
3.3339393e-06
-2.6640285e-09
3.3348171e-06
-2.6610411e-09
3.3356938e-06
-2.6573762e-09
3.336569e-06
-2.6530328e-09
3.3374425e-06
-2.6480174e-09
3.3383142e-06
-2.6423019e-09
3.3391839e-06
-2.6360426e-09
3.340051e-06
-2.6284014e-09
-2.6239983e-09
3.3409166e-06
3.2055249e-06
-2.3749935e-11
3.2055423e-06
-7.128977e-11
3.2055713e-06
-1.1885723e-10
3.2056119e-06
-1.6642862e-10
3.2056641e-06
-2.1399698e-10
3.2057279e-06
-2.6155549e-10
3.2058034e-06
-3.0909745e-10
3.2058904e-06
-3.5661622e-10
3.2059891e-06
-4.0410516e-10
3.2060994e-06
-4.5155763e-10
3.2062213e-06
-4.9896701e-10
3.2063548e-06
-5.4632659e-10
3.2064998e-06
-5.9362967e-10
3.2066564e-06
-6.4086948e-10
3.2068246e-06
-6.8803923e-10
3.2070043e-06
-7.3513206e-10
3.2071955e-06
-7.821411e-10
3.2073982e-06
-8.2905938e-10
3.2076123e-06
-8.7587992e-10
3.207838e-06
-9.2259563e-10
3.208075e-06
-9.6919938e-10
3.2083235e-06
-1.015684e-09
3.2085833e-06
-1.0620421e-09
3.2088545e-06
-1.1082665e-09
3.209137e-06
-1.1543497e-09
3.2094308e-06
-1.2002841e-09
3.2097358e-06
-1.2460621e-09
3.210052e-06
-1.2916761e-09
3.2103794e-06
-1.3371182e-09
3.210718e-06
-1.3823805e-09
3.2110676e-06
-1.427455e-09
3.2114282e-06
-1.4723336e-09
3.2117998e-06
-1.517008e-09
3.2121824e-06
-1.5614697e-09
3.2125759e-06
-1.6057104e-09
3.2129802e-06
-1.6497214e-09
3.2133953e-06
-1.6934938e-09
3.2138211e-06
-1.7370189e-09
3.2142576e-06
-1.7802875e-09
3.2147047e-06
-1.8232905e-09
3.2151623e-06
-1.8660185e-09
3.2156304e-06
-1.9084621e-09
3.216109e-06
-1.9506116e-09
3.2165978e-06
-1.9924574e-09
3.2170969e-06
-2.0339894e-09
3.2176062e-06
-2.0751978e-09
3.2181256e-06
-2.1160723e-09
3.218655e-06
-2.1566027e-09
3.2191944e-06
-2.1967785e-09
3.2197436e-06
-2.2365892e-09
3.2203026e-06
-2.2760242e-09
3.2208712e-06
-2.3150726e-09
3.2214494e-06
-2.3537237e-09
3.2220371e-06
-2.3919665e-09
3.2226342e-06
-2.4297898e-09
3.2232406e-06
-2.4671826e-09
3.2238561e-06
-2.5041336e-09
3.2244807e-06
-2.5406315e-09
3.2251143e-06
-2.576665e-09
3.2257567e-06
-2.6122227e-09
3.2264078e-06
-2.647293e-09
3.2270675e-06
-2.6818645e-09
3.2277357e-06
-2.7159256e-09
3.2284122e-06
-2.7494648e-09
3.2290969e-06
-2.7824706e-09
3.2297898e-06
-2.8149312e-09
3.2304906e-06
-2.8468352e-09
3.2311992e-06
-2.8781709e-09
3.2319155e-06
-2.908927e-09
3.2326393e-06
-2.9390917e-09
3.2333705e-06
-2.9686537e-09
3.2341089e-06
-2.9976017e-09
3.2348545e-06
-3.0259242e-09
3.2356069e-06
-3.05361e-09
3.2363661e-06
-3.080648e-09
3.237132e-06
-3.107027e-09
3.2379042e-06
-3.1327362e-09
3.2386828e-06
-3.1577648e-09
3.2394674e-06
-3.1821019e-09
3.240258e-06
-3.2057371e-09
3.2410543e-06
-3.22866e-09
3.2418563e-06
-3.2508603e-09
3.2426636e-06
-3.272328e-09
3.2434761e-06
-3.2930532e-09
3.2442937e-06
-3.3130262e-09
3.2451161e-06
-3.3322375e-09
3.2459432e-06
-3.350678e-09
3.2467747e-06
-3.3683385e-09
3.2476105e-06
-3.3852103e-09
3.2484503e-06
-3.4012848e-09
3.249294e-06
-3.4165538e-09
3.2501414e-06
-3.4310091e-09
3.2509923e-06
-3.4446431e-09
3.2518463e-06
-3.4574482e-09
3.2527035e-06
-3.4694173e-09
3.2535635e-06
-3.4805435e-09
3.2544261e-06
-3.4908202e-09
3.2552911e-06
-3.5002411e-09
3.2561583e-06
-3.5088004e-09
3.2570275e-06
-3.5164924e-09
3.2578984e-06
-3.5233117e-09
3.2587709e-06
-3.5292537e-09
3.2596447e-06
-3.5343136e-09
3.2605196e-06
-3.5384873e-09
3.2613954e-06
-3.5417709e-09
3.2622718e-06
-3.5441611e-09
3.2631486e-06
-3.5456547e-09
3.2640257e-06
-3.546249e-09
3.2649027e-06
-3.545942e-09
3.2657794e-06
-3.5447316e-09
3.2666557e-06
-3.5426165e-09
3.2675313e-06
-3.5395956e-09
3.2684059e-06
-3.5356684e-09
3.2692794e-06
-3.5308349e-09
3.2701514e-06
-3.5250941e-09
3.2710219e-06
-3.518454e-09
3.2718905e-06
-3.5108772e-09
3.272757e-06
-3.5025723e-09
3.273621e-06
-3.4924207e-09
-3.4865835e-09
3.2744836e-06
3.1408807e-06
-2.9492705e-11
3.1408979e-06
-8.8523274e-11
3.1409267e-06
-1.4758639e-10
3.1409669e-06
-2.0665645e-10
3.1410186e-06
-2.6572527e-10
3.1410818e-06
-3.2478485e-10
3.1411566e-06
-3.8382721e-10
3.1412428e-06
-4.4284439e-10
3.1413405e-06
-5.0182837e-10
3.1414497e-06
-5.6077111e-10
3.1415704e-06
-6.1966452e-10
3.1417026e-06
-6.7850044e-10
3.1418462e-06
-7.3727064e-10
3.1420013e-06
-7.9596686e-10
3.1421679e-06
-8.5458074e-10
3.1423459e-06
-9.131039e-10
3.1425352e-06
-9.7152786e-10
3.142736e-06
-1.0298441e-09
3.1429482e-06
-1.088044e-09
3.1431717e-06
-1.1461189e-09
3.1434066e-06
-1.20406e-09
3.1436528e-06
-1.2618585e-09
3.1439102e-06
-1.3195053e-09
3.1441789e-06
-1.3769915e-09
3.1444589e-06
-1.4343079e-09
3.1447501e-06
-1.4914452e-09
3.1450524e-06
-1.548394e-09
3.1453659e-06
-1.6051449e-09
3.1456904e-06
-1.6616881e-09
3.1460261e-06
-1.7180141e-09
3.1463727e-06
-1.7741127e-09
3.1467304e-06
-1.829974e-09
3.1470989e-06
-1.8855877e-09
3.1474784e-06
-1.9409436e-09
3.1478687e-06
-1.996031e-09
3.1482699e-06
-2.0508392e-09
3.1486817e-06
-2.1053574e-09
3.1491043e-06
-2.1595745e-09
3.1495375e-06
-2.2134793e-09
3.1499812e-06
-2.2670604e-09
3.1504355e-06
-2.3203061e-09
3.1509003e-06
-2.3732047e-09
3.1513754e-06
-2.4257442e-09
3.1518609e-06
-2.4779125e-09
3.1523566e-06
-2.5296973e-09
3.1528625e-06
-2.581086e-09
3.1533784e-06
-2.6320659e-09
3.1539045e-06
-2.6826242e-09
3.1544404e-06
-2.7327479e-09
3.1549863e-06
-2.7824238e-09
3.1555419e-06
-2.8316386e-09
3.1561072e-06
-2.8803787e-09
3.1566821e-06
-2.9286306e-09
3.1572665e-06
-2.9763805e-09
3.1578603e-06
-3.0236145e-09
3.1584635e-06
-3.0703187e-09
3.1590758e-06
-3.1164789e-09
3.1596973e-06
-3.1620809e-09
3.1603277e-06
-3.2071104e-09
3.160967e-06
-3.251553e-09
3.1616151e-06
-3.2953944e-09
3.1622719e-06
-3.33862e-09
3.1629372e-06
-3.3812152e-09
3.1636109e-06
-3.4231655e-09
3.1642929e-06
-3.4644562e-09
3.164983e-06
-3.5050727e-09
3.1656812e-06
-3.5450004e-09
3.1663872e-06
-3.5842246e-09
3.167101e-06
-3.6227308e-09
3.1678225e-06
-3.6605043e-09
3.1685513e-06
-3.6975307e-09
3.1692875e-06
-3.7337954e-09
3.1700309e-06
-3.7692842e-09
3.1707813e-06
-3.8039827e-09
3.1715385e-06
-3.8378767e-09
3.1723024e-06
-3.8709521e-09
3.1730729e-06
-3.9031951e-09
3.1738497e-06
-3.9345918e-09
3.1746327e-06
-3.9651285e-09
3.1754218e-06
-3.9947919e-09
3.1762167e-06
-4.0235686e-09
3.1770173e-06
-4.0514456e-09
3.1778234e-06
-4.0784099e-09
3.1786347e-06
-4.104449e-09
3.1794513e-06
-4.1295504e-09
3.1802727e-06
-4.153702e-09
3.181099e-06
-4.1768919e-09
3.1819297e-06
-4.1991085e-09
3.1827649e-06
-4.2203405e-09
3.1836041e-06
-4.2405768e-09
3.1844474e-06
-4.2598068e-09
3.1852944e-06
-4.2780201e-09
3.186145e-06
-4.2952066e-09
3.1869989e-06
-4.3113567e-09
3.1878559e-06
-4.326461e-09
3.1887159e-06
-4.3405106e-09
3.1895786e-06
-4.3534969e-09
3.1904437e-06
-4.3654118e-09
3.1913112e-06
-4.3762476e-09
3.1921807e-06
-4.3859967e-09
3.193052e-06
-4.3946524e-09
3.193925e-06
-4.4022082e-09
3.1947993e-06
-4.408658e-09
3.1956748e-06
-4.4139963e-09
3.1965513e-06
-4.4182179e-09
3.1974284e-06
-4.4213182e-09
3.1983061e-06
-4.4232931e-09
3.199184e-06
-4.424139e-09
3.2000619e-06
-4.4238528e-09
3.2009396e-06
-4.4224318e-09
3.2018168e-06
-4.419874e-09
3.2026934e-06
-4.4161778e-09
3.2035691e-06
-4.4113422e-09
3.2044436e-06
-4.4053672e-09
3.2053168e-06
-4.398251e-09
3.2061883e-06
-4.3900037e-09
3.207058e-06
-4.3805777e-09
3.2079257e-06
-4.3702362e-09
3.2087909e-06
-4.3575665e-09
-4.3503448e-09
3.2096546e-06
3.0775402e-06
-3.5185987e-11
3.0775572e-06
-1.0561086e-10
3.0775857e-06
-1.7607484e-10
3.0776256e-06
-2.465493e-10
3.0776769e-06
-3.1702502e-10
3.0777396e-06
-3.8749287e-10
3.0778137e-06
-4.579437e-10
3.0778993e-06
-5.2836833e-10
3.0779962e-06
-5.9875753e-10
3.0781045e-06
-6.69102e-10
3.0782243e-06
-7.3939235e-10
3.0783554e-06
-8.0961913e-10
3.0784979e-06
-8.7977278e-10
3.0786518e-06
-9.4984367e-10
3.078817e-06
-1.0198221e-09
3.0789936e-06
-1.0896982e-09
3.0791815e-06
-1.1594622e-09
3.0793808e-06
-1.229104e-09
3.0795914e-06
-1.2986136e-09
3.0798132e-06
-1.3679809e-09
3.0800464e-06
-1.4371955e-09
3.0802907e-06
-1.506247e-09
3.0805464e-06
-1.575125e-09
3.0808132e-06
-1.6438188e-09
3.0810912e-06
-1.7123176e-09
3.0813804e-06
-1.7806106e-09
3.0816807e-06
-1.8486866e-09
3.081992e-06
-1.9165345e-09
3.0823145e-06
-1.9841429e-09
3.082648e-06
-2.0515002e-09
3.0829925e-06
-2.1185947e-09
3.0833479e-06
-2.1854146e-09
3.0837143e-06
-2.2519476e-09
3.0840915e-06
-2.3181815e-09
3.0844796e-06
-2.3841039e-09
3.0848784e-06
-2.4497018e-09
3.085288e-06
-2.5149626e-09
3.0857083e-06
-2.5798728e-09
3.0861393e-06
-2.6444193e-09
3.0865808e-06
-2.7085882e-09
3.0870329e-06
-2.7723659e-09
3.0874954e-06
-2.8357383e-09
3.0879684e-06
-2.8986909e-09
3.0884517e-06
-2.9612092e-09
3.0889452e-06
-3.0232786e-09
3.089449e-06
-3.084884e-09
3.089963e-06
-3.1460101e-09
3.090487e-06
-3.2066415e-09
3.091021e-06
-3.2667627e-09
3.0915649e-06
-3.3263576e-09
3.0921187e-06
-3.3854104e-09
3.0926822e-06
-3.4439047e-09
3.0932554e-06
-3.501824e-09
3.0938382e-06
-3.5591519e-09
3.0944305e-06
-3.6158716e-09
3.0950321e-06
-3.671966e-09
3.095643e-06
-3.7274183e-09
3.0962632e-06
-3.7822111e-09
3.0968924e-06
-3.8363272e-09
3.0975306e-06
-3.8897491e-09
3.0981777e-06
-3.9424594e-09
3.0988335e-06
-3.9944405e-09
3.0994979e-06
-4.0456746e-09
3.1001709e-06
-4.096144e-09
3.1008523e-06
-4.145831e-09
3.1015419e-06
-4.1947177e-09
3.1022397e-06
-4.2427862e-09
3.1029455e-06
-4.2900189e-09
3.1036592e-06
-4.3363978e-09
3.1043806e-06
-4.3819052e-09
3.1051096e-06
-4.4265232e-09
3.105846e-06
-4.4702343e-09
3.1065898e-06
-4.5130209e-09
3.1073406e-06
-4.5548653e-09
3.1080985e-06
-4.5957504e-09
3.1088632e-06
-4.6356586e-09
3.1096346e-06
-4.6745731e-09
3.1104125e-06
-4.7124767e-09
3.1111967e-06
-4.7493528e-09
3.1119871e-06
-4.7851847e-09
3.1127835e-06
-4.8199561e-09
3.1135857e-06
-4.8536508e-09
3.1143935e-06
-4.886253e-09
3.1152068e-06
-4.917747e-09
3.1160254e-06
-4.9481175e-09
3.116849e-06
-4.9773494e-09
3.1176776e-06
-5.005428e-09
3.1185108e-06
-5.0323389e-09
3.1193485e-06
-5.058068e-09
3.1201906e-06
-5.0826015e-09
3.1210367e-06
-5.1059262e-09
3.1218867e-06
-5.1280291e-09
3.1227404e-06
-5.1488977e-09
3.1235975e-06
-5.1685197e-09
3.124458e-06
-5.1868836e-09
3.1253214e-06
-5.2039781e-09
3.1261877e-06
-5.2197924e-09
3.1270566e-06
-5.2343162e-09
3.1279279e-06
-5.2475396e-09
3.1288014e-06
-5.2594534e-09
3.1296768e-06
-5.2700488e-09
3.1305539e-06
-5.2793174e-09
3.1314325e-06
-5.2872516e-09
3.1323123e-06
-5.2938441e-09
3.1331932e-06
-5.2990885e-09
3.1340749e-06
-5.3029785e-09
3.1349571e-06
-5.305509e-09
3.1358396e-06
-5.3066749e-09
3.1367222e-06
-5.3064722e-09
3.1376047e-06
-5.3048973e-09
3.1384868e-06
-5.3019473e-09
3.1393682e-06
-5.2976199e-09
3.1402488e-06
-5.2919134e-09
3.1411282e-06
-5.2848275e-09
3.1420064e-06
-5.2763596e-09
3.1428829e-06
-5.2665218e-09
3.1437576e-06
-5.2552554e-09
3.1446302e-06
-5.2428817e-09
3.1455003e-06
-5.2276756e-09
-5.2191227e-09
3.1463691e-06
3.015477e-06
-4.0839986e-11
3.0154939e-06
-1.2257982e-10
3.0155222e-06
-2.0436521e-10
3.0155619e-06
-2.8616539e-10
3.0156128e-06
-3.6797017e-10
3.0156751e-06
-4.497694e-10
3.0157487e-06
-5.3155295e-10
3.0158336e-06
-6.133106e-10
3.0159299e-06
-6.9503207e-10
3.0160375e-06
-7.7670697e-10
3.0161564e-06
-8.5832483e-10
3.0162867e-06
-9.3987505e-10
3.0164283e-06
-1.0213469e-09
3.0165812e-06
-1.1027296e-09
3.0167453e-06
-1.1840122e-09
3.0169208e-06
-1.2651837e-09
3.0171076e-06
-1.3462329e-09
3.0173056e-06
-1.4271486e-09
3.017515e-06
-1.5079193e-09
3.0177355e-06
-1.5885336e-09
3.0179673e-06
-1.6689799e-09
3.0182103e-06
-1.7492463e-09
3.0184645e-06
-1.8293208e-09
3.0187299e-06
-1.9091915e-09
3.0190064e-06
-1.9888459e-09
3.019294e-06
-2.0682717e-09
3.0195928e-06
-2.1474562e-09
3.0199027e-06
-2.2263867e-09
3.0202236e-06
-2.30505e-09
3.0205555e-06
-2.383433e-09
3.0208984e-06
-2.4615222e-09
3.0212523e-06
-2.5393039e-09
3.0216171e-06
-2.6167642e-09
3.0219928e-06
-2.6938889e-09
3.0223794e-06
-2.7706636e-09
3.0227768e-06
-2.8470736e-09
3.0231849e-06
-2.9231039e-09
3.0236038e-06
-2.9987393e-09
3.0240333e-06
-3.0739643e-09
3.0244735e-06
-3.148763e-09
3.0249243e-06
-3.2231195e-09
3.0253855e-06
-3.2970173e-09
3.0258573e-06
-3.3704398e-09
3.0263395e-06
-3.44337e-09
3.026832e-06
-3.5157908e-09
3.0273348e-06
-3.5876845e-09
3.0278478e-06
-3.6590336e-09
3.028371e-06
-3.7298198e-09
3.0289042e-06
-3.8000249e-09
3.0294475e-06
-3.8696304e-09
3.0300007e-06
-3.9386173e-09
3.0305638e-06
-4.0069667e-09
3.0311366e-06
-4.0746593e-09
3.0317191e-06
-4.1416755e-09
3.0323113e-06
-4.2079956e-09
3.0329129e-06
-4.2735998e-09
3.0335239e-06
-4.3384679e-09
3.0341443e-06
-4.4025797e-09
3.0347739e-06
-4.4659147e-09
3.0354126e-06
-4.5284524e-09
3.0360603e-06
-4.590172e-09
3.0367169e-06
-4.6510527e-09
3.0373823e-06
-4.7110736e-09
3.0380564e-06
-4.7702137e-09
3.038739e-06
-4.8284519e-09
3.0394301e-06
-4.885767e-09
3.0401294e-06
-4.9421378e-09
3.0408369e-06
-4.9975432e-09
3.0415525e-06
-5.0519619e-09
3.042276e-06
-5.1053728e-09
3.0430072e-06
-5.1577546e-09
3.043746e-06
-5.2090864e-09
3.0444924e-06
-5.259347e-09
3.045246e-06
-5.3085156e-09
3.0460068e-06
-5.3565714e-09
3.0467747e-06
-5.4034936e-09
3.0475494e-06
-5.4492617e-09
3.0483308e-06
-5.4938555e-09
3.0491187e-06
-5.5372547e-09
3.0499129e-06
-5.5794394e-09
3.0507133e-06
-5.62039e-09
3.0515198e-06
-5.6600869e-09
3.052332e-06
-5.698511e-09
3.0531499e-06
-5.7356435e-09
3.0539733e-06
-5.7714658e-09
3.0548019e-06
-5.8059596e-09
3.0556356e-06
-5.8391071e-09
3.0564741e-06
-5.8708908e-09
3.0573173e-06
-5.9012935e-09
3.058165e-06
-5.9302987e-09
3.059017e-06
-5.9578901e-09
3.059873e-06
-5.9840517e-09
3.0607329e-06
-6.0087684e-09
3.0615964e-06
-6.0320252e-09
3.0624633e-06
-6.0538078e-09
3.0633335e-06
-6.0741023e-09
3.0642066e-06
-6.0928955e-09
3.0650824e-06
-6.1101746e-09
3.0659608e-06
-6.1259275e-09
3.0668415e-06
-6.1401426e-09
3.0677243e-06
-6.1528089e-09
3.0686089e-06
-6.1639161e-09
3.0694951e-06
-6.1734545e-09
3.0703826e-06
-6.1814151e-09
3.0712713e-06
-6.1877894e-09
3.0721609e-06
-6.1925699e-09
3.0730512e-06
-6.1957496e-09
3.0739418e-06
-6.1973221e-09
3.0748326e-06
-6.197282e-09
3.0757233e-06
-6.1956246e-09
3.0766137e-06
-6.1923458e-09
3.0775036e-06
-6.1874426e-09
3.0783926e-06
-6.1809122e-09
3.0792805e-06
-6.1727539e-09
3.0801671e-06
-6.162964e-09
3.0810521e-06
-6.1515565e-09
3.0819353e-06
-6.1384608e-09
3.0828165e-06
-6.12406e-09
3.0836951e-06
-6.1062951e-09
-6.0964748e-09
3.0845725e-06
2.9546654e-06
-4.6459731e-11
2.9546823e-06
-1.3944614e-10
2.9547104e-06
-2.3248502e-10
2.9547498e-06
-3.2554396e-10
2.9548004e-06
-4.1861196e-10
2.9548623e-06
-5.1167807e-10
2.9549355e-06
-6.0473131e-10
2.9550199e-06
-6.9776063e-10
2.9551157e-06
-7.9075485e-10
2.9552227e-06
-8.837027e-10
2.9553409e-06
-9.7659278e-10
2.9554705e-06
-1.0694135e-09
2.9556113e-06
-1.1621533e-09
2.9557634e-06
-1.2548001e-09
2.9559267e-06
-1.3473422e-09
2.9561013e-06
-1.4397673e-09
2.9562871e-06
-1.5320633e-09
2.9564842e-06
-1.6242177e-09
2.9566925e-06
-1.716218e-09
2.956912e-06
-1.8080515e-09
2.9571427e-06
-1.8997054e-09
2.9573846e-06
-1.9911665e-09
2.9576377e-06
-2.0824217e-09
2.957902e-06
-2.1734575e-09
2.9581774e-06
-2.2642602e-09
2.958464e-06
-2.3548159e-09
2.9587616e-06
-2.4451107e-09
2.9590704e-06
-2.5351302e-09
2.9593902e-06
-2.6248598e-09
2.959721e-06
-2.7142847e-09
2.9600629e-06
-2.8033898e-09
2.9604157e-06
-2.8921596e-09
2.9607795e-06
-2.9805787e-09
2.9611543e-06
-3.0686308e-09
2.9615399e-06
-3.1562999e-09
2.9619364e-06
-3.2435692e-09
2.9623437e-06
-3.3304219e-09
2.9627618e-06
-3.4168407e-09
2.9631907e-06
-3.5028079e-09
2.9636302e-06
-3.5883057e-09
2.9640804e-06
-3.6733158e-09
2.9645412e-06
-3.7578195e-09
2.9650126e-06
-3.8417979e-09
2.9654944e-06
-3.9252316e-09
2.9659868e-06
-4.0081009e-09
2.9664895e-06
-4.0903859e-09
2.9670025e-06
-4.1720661e-09
2.9675258e-06
-4.2531209e-09
2.9680593e-06
-4.3335294e-09
2.9686029e-06
-4.4132701e-09
2.9691566e-06
-4.4923214e-09
2.9697203e-06
-4.5706614e-09
2.9702939e-06
-4.6482679e-09
2.9708774e-06
-4.7251184e-09
2.9714706e-06
-4.8011901e-09
2.9720734e-06
-4.8764601e-09
2.9726859e-06
-4.950905e-09
2.9733078e-06
-5.0245015e-09
2.9739391e-06
-5.0972259e-09
2.9745797e-06
-5.1690542e-09
2.9752295e-06
-5.2399626e-09
2.9758884e-06
-5.3099267e-09
2.9765562e-06
-5.3789223e-09
2.9772329e-06
-5.4469248e-09
2.9779184e-06
-5.5139098e-09
2.9786125e-06
-5.5798525e-09
2.9793151e-06
-5.6447283e-09
2.980026e-06
-5.7085123e-09
2.9807453e-06
-5.7711798e-09
2.9814726e-06
-5.8327059e-09
2.9822079e-06
-5.893066e-09
2.9829511e-06
-5.9522351e-09
2.9837019e-06
-6.0101888e-09
2.9844603e-06
-6.0669024e-09
2.9852261e-06
-6.1223513e-09
2.9859991e-06
-6.1765113e-09
2.9867792e-06
-6.2293582e-09
2.9875662e-06
-6.280868e-09
2.98836e-06
-6.3310169e-09
2.9891603e-06
-6.3797813e-09
2.989967e-06
-6.4271379e-09
2.99078e-06
-6.4730636e-09
2.991599e-06
-6.5175357e-09
2.9924239e-06
-6.5605318e-09
2.9932545e-06
-6.6020298e-09
2.9940905e-06
-6.642008e-09
2.9949319e-06
-6.6804451e-09
2.9957783e-06
-6.7173202e-09
2.9966296e-06
-6.7526128e-09
2.9974856e-06
-6.7863029e-09
2.9983461e-06
-6.8183711e-09
2.9992109e-06
-6.8487983e-09
3.0000797e-06
-6.8775661e-09
3.0009523e-06
-6.9046565e-09
3.0018285e-06
-6.9300522e-09
3.0027082e-06
-6.9537364e-09
3.003591e-06
-6.975693e-09
3.0044767e-06
-6.9959066e-09
3.0053651e-06
-7.0143622e-09
3.006256e-06
-7.0310457e-09
3.0071492e-06
-7.0459436e-09
3.0080443e-06
-7.0590434e-09
3.0089412e-06
-7.0703328e-09
3.0098396e-06
-7.0798008e-09
3.0107392e-06
-7.0874367e-09
3.0116399e-06
-7.0932311e-09
3.0125413e-06
-7.0971751e-09
3.0134432e-06
-7.0992607e-09
3.0143454e-06
-7.0994808e-09
3.0152476e-06
-7.0978292e-09
3.0161496e-06
-7.0943004e-09
3.017051e-06
-7.0888902e-09
3.0179517e-06
-7.081595e-09
3.0188514e-06
-7.0724128e-09
3.0197498e-06
-7.0613389e-09
3.0206466e-06
-7.0483891e-09
3.0215416e-06
-7.0334796e-09
3.0224346e-06
-7.01706e-09
3.023325e-06
-6.996712e-09
-6.9857005e-09
3.0242143e-06
2.8950802e-06
-5.2049484e-11
2.895097e-06
-1.5622244e-10
2.8951249e-06
-2.6045515e-10
2.8951641e-06
-3.6471428e-10
2.8952145e-06
-4.6898822e-10
2.8952761e-06
-5.7326541e-10
2.8953489e-06
-6.7753423e-10
2.8954329e-06
-7.8178296e-10
2.8955281e-06
-8.8599976e-10
2.8956346e-06
-9.9017264e-10
2.8957523e-06
-1.0942895e-09
2.8958812e-06
-1.1983379e-09
2.8960214e-06
-1.3023056e-09
2.8961728e-06
-1.4061797e-09
2.8963354e-06
-1.5099475e-09
2.8965092e-06
-1.6135959e-09
2.8966942e-06
-1.7171119e-09
2.8968905e-06
-1.8204821e-09
2.897098e-06
-1.923693e-09
2.8973167e-06
-2.0267307e-09
2.8975465e-06
-2.1295815e-09
2.8977876e-06
-2.2322311e-09
2.8980399e-06
-2.3346651e-09
2.8983033e-06
-2.4368689e-09
2.8985778e-06
-2.5388276e-09
2.8988635e-06
-2.6405262e-09
2.8991604e-06
-2.7419491e-09
2.8994683e-06
-2.8430806e-09
2.8997874e-06
-2.9439049e-09
2.9001175e-06
-3.0444055e-09
2.9004587e-06
-3.1445659e-09
2.9008109e-06
-3.244369e-09
2.9011741e-06
-3.3437975e-09
2.9015483e-06
-3.4428337e-09
2.9019335e-06
-3.5414596e-09
2.9023296e-06
-3.6396567e-09
2.9027365e-06
-3.7374063e-09
2.9031544e-06
-3.8346889e-09
2.9035831e-06
-3.9314851e-09
2.9040225e-06
-4.0277748e-09
2.9044728e-06
-4.1235375e-09
2.9049337e-06
-4.2187523e-09
2.9054053e-06
-4.3133979e-09
2.9058875e-06
-4.4074526e-09
2.9063803e-06
-4.5008944e-09
2.9068836e-06
-4.5937006e-09
2.9073974e-06
-4.6858482e-09
2.9079216e-06
-4.777314e-09
2.9084561e-06
-4.8680743e-09
2.909001e-06
-4.9581048e-09
2.909556e-06
-5.047381e-09
2.9101212e-06