# Region type : patch sphere
#      Faces  : 40
#      Area   : 6.276727658e-02
#           Time	areaAverage(p)	areaAverage(U)
         2.5e-05	1.013250197e+05	(-1.265139148e-21 0.000000000e+00 1.686852197e-21)
           5e-05	1.013250809e+05	(8.434260985e-22 0.000000000e+00 0.000000000e+00)
         7.5e-05	1.013251823e+05	(-1.012111318e-20 0.000000000e+00 -1.686852197e-21)
          0.0001	1.013253213e+05	(1.012111318e-20 0.000000000e+00 -8.434260985e-21)
        0.000125	1.013254946e+05	(-8.434260985e-21 0.000000000e+00 -2.024222636e-20)
         0.00015	1.013256981e+05	(0.000000000e+00 0.000000000e+00 4.723186152e-20)
        0.000175	1.013259272e+05	(-2.698963515e-20 0.000000000e+00 3.036333955e-20)
          0.0002	1.013261770e+05	(6.747408788e-21 0.000000000e+00 5.060556591e-20)
        0.000225	1.013264421e+05	(-4.048445273e-20 0.000000000e+00 -3.373704394e-21)
         0.00025	1.013267173e+05	(1.282007670e-19 0.000000000e+00 -1.349481758e-20)
        0.000275	1.013269974e+05	(-6.747408788e-21 0.000000000e+00 0.000000000e+00)
          0.0003	1.013272774e+05	(6.072667909e-20 0.000000000e+00 6.747408788e-21)
        0.000325	1.013275529e+05	(-1.349481758e-20 0.000000000e+00 6.747408788e-21)
         0.00035	1.013278199e+05	(-1.282007670e-19 0.000000000e+00 1.147059494e-19)
        0.000375	1.013280749e+05	(2.698963515e-20 0.000000000e+00 1.282007670e-19)
          0.0004	1.013283152e+05	(-2.024222636e-20 0.000000000e+00 -8.771631425e-20)
        0.000425	1.013285390e+05	(-8.096890546e-20 0.000000000e+00 -2.698963515e-20)
         0.00045	1.013287450e+05	(-2.024222636e-19 0.000000000e+00 4.048445273e-20)
        0.000475	1.013289327e+05	(-6.072667909e-20 0.000000000e+00 -5.397927031e-20)
          0.0005	1.013291025e+05	(6.072667909e-20 0.000000000e+00 -6.072667909e-20)
        0.000525	1.013292552e+05	(-3.373704394e-20 0.000000000e+00 4.048445273e-20)
         0.00055	1.013293923e+05	(1.282007670e-19 0.000000000e+00 -1.214533582e-19)
        0.000575	1.013295157e+05	(1.349481758e-20 0.000000000e+00 -2.698963515e-20)
          0.0006	1.013296278e+05	(-4.048445273e-20 0.000000000e+00 4.048445273e-20)
        0.000625	1.013297309e+05	(-6.747408788e-20 0.000000000e+00 6.747408788e-20)
         0.00065	1.013298278e+05	(5.397927031e-20 0.000000000e+00 6.747408788e-20)
        0.000675	1.013299210e+05	(0.000000000e+00 0.000000000e+00 1.349481758e-20)
          0.0007	1.013300131e+05	(1.079585406e-19 0.000000000e+00 -1.349481758e-20)
        0.000725	1.013301061e+05	(2.159170812e-19 0.000000000e+00 0.000000000e+00)
         0.00075	1.013302022e+05	(4.048445273e-20 0.000000000e+00 8.096890546e-20)
        0.000775	1.013303027e+05	(8.096890546e-20 0.000000000e+00 -8.096890546e-20)
          0.0008	1.013304087e+05	(4.048445273e-20 0.000000000e+00 2.833911691e-19)
        0.000825	1.013305209e+05	(1.349481758e-19 0.000000000e+00 6.747408788e-20)
         0.00085	1.013306394e+05	(-3.103808043e-19 0.000000000e+00 9.446372304e-20)
        0.000875	1.013307640e+05	(-9.446372304e-20 0.000000000e+00 -9.446372304e-20)
          0.0009	1.013308940e+05	(-6.747408788e-20 0.000000000e+00 4.048445273e-20)
        0.000925	1.013310285e+05	(4.048445273e-20 0.000000000e+00 -1.349481758e-20)
         0.00095	1.013311662e+05	(1.754326285e-19 0.000000000e+00 2.833911691e-19)
        0.000975	1.013313058e+05	(-4.048445273e-20 0.000000000e+00 -8.096890546e-20)
           0.001	1.013314458e+05	(4.048445273e-20 0.000000000e+00 -2.833911691e-19)
        0.001025	1.013315847e+05	(1.484429933e-19 0.000000000e+00 6.747408788e-20)
         0.00105	1.013317210e+05	(1.619378109e-19 0.000000000e+00 -1.484429933e-19)
        0.001075	1.013318534e+05	(-1.079585406e-19 0.000000000e+00 8.096890546e-20)
          0.0011	1.013319805e+05	(-2.698963515e-20 0.000000000e+00 4.048445273e-20)
        0.001125	1.013321013e+05	(4.048445273e-20 0.000000000e+00 -5.397927031e-20)
         0.00115	1.013322149e+05	(-9.446372304e-20 0.000000000e+00 5.397927031e-20)
        0.001175	1.013323206e+05	(-9.446372304e-20 0.000000000e+00 2.968859867e-19)
          0.0012	1.013324179e+05	(-2.698963515e-20 0.000000000e+00 -1.889274461e-19)
        0.001225	1.013325068e+05	(-5.397927031e-20 0.000000000e+00 2.698963515e-20)
         0.00125	1.013325872e+05	(1.349481758e-19 0.000000000e+00 8.096890546e-20)
        0.001275	1.013326594e+05	(8.096890546e-20 0.000000000e+00 3.508652570e-19)
          0.0013	1.013327238e+05	(-2.968859867e-19 0.000000000e+00 2.968859867e-19)
        0.001325	1.013327812e+05	(0.000000000e+00 0.000000000e+00 2.159170812e-19)
         0.00135	1.013328323e+05	(-2.698963515e-20 0.000000000e+00 0.000000000e+00)
        0.001375	1.013328779e+05	(-1.349481758e-19 0.000000000e+00 -3.238756218e-19)
          0.0014	1.013329188e+05	(-8.096890546e-20 0.000000000e+00 8.096890546e-20)
        0.001425	1.013329562e+05	(-5.397927031e-20 0.000000000e+00 -1.619378109e-19)
         0.00145	1.013329907e+05	(5.397927031e-20 0.000000000e+00 6.207616085e-19)
        0.001475	1.013330232e+05	(-2.159170812e-19 0.000000000e+00 6.747408788e-19)
          0.0015	1.013330544e+05	(8.096890546e-20 0.000000000e+00 -8.096890546e-20)
        0.001525	1.013330850e+05	(-1.349481758e-19 0.000000000e+00 -2.698963515e-19)
         0.00155	1.013331153e+05	(-1.619378109e-19 0.000000000e+00 -8.096890546e-20)
        0.001575	1.013331457e+05	(-2.159170812e-19 0.000000000e+00 1.889274461e-19)
          0.0016	1.013331762e+05	(-2.429067164e-19 0.000000000e+00 2.159170812e-19)
        0.001625	1.013332069e+05	(2.698963515e-19 0.000000000e+00 -2.698963515e-19)
         0.00165	1.013332377e+05	(1.349481758e-19 0.000000000e+00 -1.619378109e-19)
        0.001675	1.013332683e+05	(-8.096890546e-20 0.000000000e+00 5.128030679e-19)
          0.0017	1.013332983e+05	(-1.079585406e-19 0.000000000e+00 1.079585406e-19)
        0.001725	1.013333273e+05	(-2.159170812e-19 0.000000000e+00 2.159170812e-19)
         0.00175	1.013333548e+05	(-1.619378109e-19 0.000000000e+00 1.619378109e-19)
        0.001775	1.013333804e+05	(-2.429067164e-19 0.000000000e+00 0.000000000e+00)
          0.0018	1.013334034e+05	(0.000000000e+00 0.000000000e+00 2.698963515e-20)
        0.001825	1.013334235e+05	(-5.397927031e-20 0.000000000e+00 2.698963515e-20)
         0.00185	1.013334402e+05	(3.238756218e-19 0.000000000e+00 -2.968859867e-19)
        0.001875	1.013334531e+05	(3.508652570e-19 0.000000000e+00 -3.778548921e-19)
          0.0019	1.013334619e+05	(-5.397927031e-19 0.000000000e+00 5.128030679e-19)
        0.001925	1.013334663e+05	(2.698963515e-20 0.000000000e+00 -5.397927031e-20)
         0.00195	1.013334661e+05	(3.508652570e-19 0.000000000e+00 -3.238756218e-19)
        0.001975	1.013334614e+05	(-1.079585406e-19 0.000000000e+00 -3.508652570e-19)
           0.002	1.013334519e+05	(-2.698963515e-20 0.000000000e+00 2.429067164e-19)
        0.002025	1.013334379e+05	(2.159170812e-19 0.000000000e+00 -2.429067164e-19)
         0.00205	1.013334194e+05	(0.000000000e+00 0.000000000e+00 -4.048445273e-19)
        0.002075	1.013333967e+05	(-2.698963515e-20 0.000000000e+00 -5.937719734e-19)
          0.0021	1.013333699e+05	(-2.698963515e-20 0.000000000e+00 5.397927031e-20)
        0.002125	1.013333393e+05	(8.096890546e-20 0.000000000e+00 3.508652570e-19)
         0.00215	1.013333052e+05	(-2.698963515e-20 0.000000000e+00 -2.698963515e-20)
        0.002175	1.013332679e+05	(-6.747408788e-19 0.000000000e+00 -1.349481758e-19)
          0.0022	1.013332276e+05	(5.397927031e-20 0.000000000e+00 -4.858134328e-19)
        0.002225	1.013331847e+05	(-2.698963515e-20 0.000000000e+00 2.698963515e-20)
         0.00225	1.013331394e+05	(-3.238756218e-19 0.000000000e+00 3.238756218e-19)
        0.002275	1.013330919e+05	(-1.349481758e-19 0.000000000e+00 -8.096890546e-20)
          0.0023	1.013330424e+05	(-1.889274461e-19 0.000000000e+00 4.048445273e-19)
        0.002325	1.013329910e+05	(-1.079585406e-19 0.000000000e+00 -3.238756218e-19)
         0.00235	1.013329379e+05	(-8.096890546e-20 0.000000000e+00 5.397927031e-20)
        0.002375	1.013328830e+05	(-1.349481758e-19 0.000000000e+00 8.096890546e-20)
          0.0024	1.013328264e+05	(0.000000000e+00 0.000000000e+00 0.000000000e+00)
        0.002425	1.013327681e+05	(5.397927031e-20 0.000000000e+00 -4.858134328e-19)
         0.00245	1.013327080e+05	(5.397927031e-20 0.000000000e+00 -5.397927031e-20)
        0.002475	1.013326461e+05	(2.159170812e-19 0.000000000e+00 -2.429067164e-19)
          0.0025	1.013325823e+05	(-1.349481758e-19 0.000000000e+00 1.619378109e-19)
        0.002525	1.013325164e+05	(-1.079585406e-19 0.000000000e+00 5.397927031e-19)
         0.00255	1.013324485e+05	(-2.698963515e-20 0.000000000e+00 2.429067164e-19)
        0.002575	1.013323783e+05	(-1.349481758e-19 0.000000000e+00 -2.429067164e-19)
          0.0026	1.013323058e+05	(-5.397927031e-20 0.000000000e+00 5.397927031e-20)
        0.002625	1.013322309e+05	(-2.968859867e-19 0.000000000e+00 5.128030679e-19)
         0.00265	1.013321536e+05	(1.349481758e-19 0.000000000e+00 -5.937719734e-19)
        0.002675	1.013320738e+05	(-5.397927031e-20 0.000000000e+00 2.698963515e-20)
          0.0027	1.013319914e+05	(-1.079585406e-19 0.000000000e+00 5.128030679e-19)
        0.002725	1.013319066e+05	(-1.349481758e-19 0.000000000e+00 1.349481758e-19)
         0.00275	1.013318193e+05	(1.079585406e-19 0.000000000e+00 1.079585406e-19)
        0.002775	1.013317295e+05	(2.698963515e-20 0.000000000e+00 -2.698963515e-20)
          0.0028	1.013316373e+05	(-2.429067164e-19 0.000000000e+00 2.429067164e-19)
        0.002825	1.013315427e+05	(-2.698963515e-20 0.000000000e+00 -4.588237976e-19)
         0.00285	1.013314459e+05	(1.079585406e-19 0.000000000e+00 1.079585406e-19)
        0.002875	1.013313470e+05	(-5.128030679e-19 0.000000000e+00 8.096890546e-20)
          0.0029	1.013312460e+05	(-8.096890546e-20 0.000000000e+00 -2.968859867e-19)
        0.002925	1.013311432e+05	(-3.238756218e-19 0.000000000e+00 1.079585406e-19)
         0.00295	1.013310386e+05	(1.079585406e-19 0.000000000e+00 2.968859867e-19)
        0.002975	1.013309324e+05	(-1.889274461e-19 0.000000000e+00 1.619378109e-19)
           0.003	1.013308249e+05	(8.096890546e-20 0.000000000e+00 -8.096890546e-20)
        0.003025	1.013307161e+05	(8.096890546e-20 0.000000000e+00 1.079585406e-19)
         0.00305	1.013306063e+05	(4.048445273e-19 0.000000000e+00 -4.048445273e-19)
        0.003075	1.013304953e+05	(-2.698963515e-19 0.000000000e+00 2.968859867e-19)
          0.0031	1.013303828e+05	(2.429067164e-19 0.000000000e+00 -2.429067164e-19)
        0.003125	1.013302685e+05	(1.079585406e-19 0.000000000e+00 -1.079585406e-19)
         0.00315	1.013301518e+05	(0.000000000e+00 0.000000000e+00 -2.698963515e-20)
        0.003175	1.013300324e+05	(-2.698963515e-19 0.000000000e+00 -1.619378109e-19)
          0.0032	1.013299100e+05	(1.079585406e-19 0.000000000e+00 -1.349481758e-19)
        0.003225	1.013297842e+05	(-8.096890546e-20 0.000000000e+00 3.238756218e-19)
         0.00325	1.013296551e+05	(-2.429067164e-19 0.000000000e+00 7.287201491e-19)
        0.003275	1.013295226e+05	(8.096890546e-20 0.000000000e+00 -8.096890546e-20)
          0.0033	1.013293868e+05	(-1.619378109e-19 0.000000000e+00 1.889274461e-19)
        0.003325	1.013292480e+05	(0.000000000e+00 0.000000000e+00 4.318341624e-19)
         0.00335	1.013291063e+05	(1.889274461e-19 0.000000000e+00 2.698963515e-20)
        0.003375	1.013289619e+05	(-2.968859867e-19 0.000000000e+00 -5.667823382e-19)
          0.0034	1.013288153e+05	(0.000000000e+00 0.000000000e+00 0.000000000e+00)
        0.003425	1.013286665e+05	(1.349481758e-19 0.000000000e+00 2.968859867e-19)
         0.00345	1.013285160e+05	(5.397927031e-20 0.000000000e+00 -5.397927031e-20)
        0.003475	1.013283639e+05	(-2.159170812e-19 0.000000000e+00 2.698963515e-19)
          0.0035	1.013282104e+05	(-8.096890546e-20 0.000000000e+00 -8.096890546e-20)
        0.003525	1.013280557e+05	(-2.698963515e-19 0.000000000e+00 9.176475952e-19)
         0.00355	1.013279001e+05	(2.698963515e-20 0.000000000e+00 0.000000000e+00)
        0.003575	1.013277436e+05	(5.397927031e-20 0.000000000e+00 1.619378109e-19)
          0.0036	1.013275865e+05	(1.889274461e-19 0.000000000e+00 -1.349481758e-19)
        0.003625	1.013274289e+05	(5.397927031e-20 0.000000000e+00 -2.698963515e-20)
         0.00365	1.013272710e+05	(-1.619378109e-19 0.000000000e+00 -2.429067164e-19)
        0.003675	1.013271128e+05	(-2.698963515e-20 0.000000000e+00 2.429067164e-19)
          0.0037	1.013269546e+05	(1.484429933e-19 0.000000000e+00 -1.349481758e-19)
        0.003725	1.013267966e+05	(5.397927031e-20 0.000000000e+00 -2.698963515e-20)
         0.00375	1.013266387e+05	(1.889274461e-19 0.000000000e+00 4.588237976e-19)
        0.003775	1.013264811e+05	(1.889274461e-19 0.000000000e+00 4.588237976e-19)
          0.0038	1.013263240e+05	(-4.723186152e-19 0.000000000e+00 2.698963515e-20)
        0.003825	1.013261672e+05	(0.000000000e+00 0.000000000e+00 2.698963515e-20)
         0.00385	1.013260108e+05	(4.048445273e-20 0.000000000e+00 -5.397927031e-20)
        0.003875	1.013258548e+05	(-2.968859867e-19 0.000000000e+00 1.079585406e-19)
          0.0039	1.013256991e+05	(-2.159170812e-19 0.000000000e+00 2.294118988e-19)
        0.003925	1.013255437e+05	(-2.698963515e-20 0.000000000e+00 -1.754326285e-19)
         0.00395	1.013253884e+05	(-1.079585406e-19 0.000000000e+00 -1.079585406e-19)
        0.003975	1.013252333e+05	(2.698963515e-20 0.000000000e+00 -2.698963515e-20)
           0.004	1.013250781e+05	(-6.747408788e-20 0.000000000e+00 -1.484429933e-19)
        0.004025	1.013249229e+05	(-1.619378109e-19 0.000000000e+00 -2.564015340e-19)
         0.00405	1.013247676e+05	(1.349481758e-20 0.000000000e+00 -2.024222636e-19)
        0.004075	1.013246121e+05	(-5.397927031e-20 0.000000000e+00 -4.453289800e-19)
          0.0041	1.013244565e+05	(-2.429067164e-19 0.000000000e+00 2.698963515e-20)
        0.004125	1.013243006e+05	(1.349481758e-20 0.000000000e+00 -2.698963515e-20)
         0.00415	1.013241445e+05	(-2.833911691e-19 0.000000000e+00 2.698963515e-19)
        0.004175	1.013239882e+05	(-1.214533582e-19 0.000000000e+00 -8.096890546e-20)
          0.0042	1.013238316e+05	(-2.024222636e-19 0.000000000e+00 -1.349481758e-20)
        0.004225	1.013236749e+05	(1.349481758e-20 0.000000000e+00 -1.349481758e-20)
         0.00425	1.013235179e+05	(6.747408788e-20 0.000000000e+00 2.698963515e-20)
        0.004275	1.013233606e+05	(-5.397927031e-20 0.000000000e+00 6.747408788e-20)
          0.0043	1.013232030e+05	(-4.048445273e-20 0.000000000e+00 -6.747408788e-20)
        0.004325	1.013230451e+05	(2.698963515e-20 0.000000000e+00 -2.698963515e-20)
         0.00435	1.013228869e+05	(4.048445273e-20 0.000000000e+00 8.096890546e-20)
        0.004375	1.013227283e+05	(-1.754326285e-19 0.000000000e+00 1.754326285e-19)
          0.0044	1.013225693e+05	(-2.698963515e-20 0.000000000e+00 -8.096890546e-20)
        0.004425	1.013224098e+05	(2.698963515e-20 0.000000000e+00 8.096890546e-20)
         0.00445	1.013222499e+05	(1.349481758e-20 0.000000000e+00 8.096890546e-20)
        0.004475	1.013220897e+05	(-4.723186152e-20 0.000000000e+00 1.619378109e-19)
          0.0045	1.013219290e+05	(-1.349481758e-20 0.000000000e+00 1.349481758e-20)
        0.004525	1.013217679e+05	(2.698963515e-20 0.000000000e+00 -1.349481758e-20)
         0.00455	1.013216065e+05	(-6.747408788e-21 0.000000000e+00 6.747408788e-21)
        0.004575	1.013214448e+05	(1.349481758e-20 0.000000000e+00 2.698963515e-20)
          0.0046	1.013212830e+05	(6.072667909e-20 0.000000000e+00 4.723186152e-20)
        0.004625	1.013211210e+05	(-3.373704394e-20 0.000000000e+00 4.048445273e-20)
         0.00465	1.013209590e+05	(6.747408788e-21 0.000000000e+00 -6.747408788e-21)
        0.004675	1.013207971e+05	(-3.373704394e-20 0.000000000e+00 8.771631425e-20)
          0.0047	1.013206354e+05	(4.048445273e-20 0.000000000e+00 -3.373704394e-20)
        0.004725	1.013204740e+05	(-3.373704394e-20 0.000000000e+00 8.771631425e-20)
         0.00475	1.013203131e+05	(4.048445273e-20 0.000000000e+00 1.686852197e-20)
        0.004775	1.013201528e+05	(-1.686852197e-20 0.000000000e+00 -9.109001864e-20)
          0.0048	1.013199933e+05	(3.373704394e-21 0.000000000e+00 0.000000000e+00)
        0.004825	1.013198348e+05	(0.000000000e+00 0.000000000e+00 0.000000000e+00)
         0.00485	1.013196772e+05	(1.686852197e-20 0.000000000e+00 -4.385815712e-20)
        0.004875	1.013195209e+05	(6.241353129e-20 0.000000000e+00 -5.060556591e-20)
          0.0049	1.013193658e+05	(1.686852197e-20 0.000000000e+00 -1.518166977e-20)
        0.004925	1.013192122e+05	(-5.060556591e-21 0.000000000e+00 5.060556591e-21)
         0.00495	1.013190599e+05	(8.434260985e-22 0.000000000e+00 0.000000000e+00)
        0.004975	1.013189092e+05	(8.434260985e-22 0.000000000e+00 5.903982690e-21)
           0.005	1.013187598e+05	(1.841019763e-32 0.000000000e+00 -1.534183136e-32)
        0.005025	1.013186117e+05	(-4.217130493e-22 0.000000000e+00 4.217130493e-22)
         0.00505	1.013184644e+05	(1.686852197e-21 0.000000000e+00 -2.530278296e-21)
        0.005075	1.013183171e+05	(-3.373704394e-21 0.000000000e+00 -1.012111318e-20)
          0.0051	1.013181684e+05	(-1.686852197e-21 0.000000000e+00 1.686852197e-21)
        0.005125	1.013180308e+05	(-1.012111318e-20 0.000000000e+00 -1.855537417e-20)
         0.00515	1.013179046e+05	(-1.012111318e-20 0.000000000e+00 6.747408788e-21)
        0.005175	1.013177880e+05	(-5.397927031e-20 0.000000000e+00 5.060556591e-20)
          0.0052	1.013176796e+05	(3.373704394e-21 0.000000000e+00 -1.349481758e-20)
        0.005225	1.013175782e+05	(-1.686852197e-20 0.000000000e+00 -3.711074834e-20)
         0.00525	1.013174824e+05	(-1.012111318e-20 0.000000000e+00 6.747408788e-21)
        0.005275	1.013173907e+05	(-3.373704394e-21 0.000000000e+00 6.747408788e-21)
          0.0053	1.013173016e+05	(1.349481758e-20 0.000000000e+00 -6.072667909e-20)
        0.005325	1.013172137e+05	(4.048445273e-20 0.000000000e+00 -4.048445273e-20)
         0.00535	1.013171257e+05	(6.747408788e-21 0.000000000e+00 0.000000000e+00)
        0.005375	1.013170364e+05	(0.000000000e+00 0.000000000e+00 1.012111318e-19)
          0.0054	1.013169451e+05	(2.024222636e-20 0.000000000e+00 -2.024222636e-20)
        0.005425	1.013168509e+05	(-6.747408788e-20 0.000000000e+00 5.397927031e-20)
         0.00545	1.013167536e+05	(8.096890546e-20 0.000000000e+00 -8.096890546e-20)
        0.005475	1.013166529e+05	(6.747408788e-20 0.000000000e+00 -5.397927031e-20)
          0.0055	1.013165490e+05	(-1.551904021e-19 0.000000000e+00 3.373704394e-20)
        0.005525	1.013164421e+05	(6.747408788e-20 0.000000000e+00 -5.397927031e-20)
         0.00555	1.013163326e+05	(-6.072667909e-20 0.000000000e+00 6.747408788e-20)
        0.005575	1.013162212e+05	(2.698963515e-20 0.000000000e+00 -1.349481758e-19)
          0.0056	1.013161087e+05	(-4.048445273e-20 0.000000000e+00 4.048445273e-20)
        0.005625	1.013159958e+05	(4.048445273e-20 0.000000000e+00 -1.484429933e-19)
         0.00565	1.013158834e+05	(-6.747408788e-20 0.000000000e+00 -2.698963515e-20)
        0.005675	1.013157723e+05	(9.446372304e-20 0.000000000e+00 -2.294118988e-19)
          0.0057	1.013156632e+05	(4.048445273e-20 0.000000000e+00 1.754326285e-19)
        0.005725	1.013155570e+05	(-1.619378109e-19 0.000000000e+00 6.747408788e-20)
         0.00575	1.013154541e+05	(-8.096890546e-20 0.000000000e+00 1.214533582e-19)
        0.005775	1.013153550e+05	(0.000000000e+00 0.000000000e+00 2.698963515e-20)
          0.0058	1.013152602e+05	(5.397927031e-20 0.000000000e+00 -2.698963515e-20)
        0.005825	1.013151698e+05	(-4.048445273e-20 0.000000000e+00 1.349481758e-20)
         0.00585	1.013150839e+05	(2.024222636e-19 0.000000000e+00 2.698963515e-20)
        0.005875	1.013150025e+05	(-4.048445273e-20 0.000000000e+00 1.349481758e-20)
          0.0059	1.013149256e+05	(-1.349481758e-19 0.000000000e+00 -3.238756218e-19)
        0.005925	1.013148529e+05	(4.048445273e-20 0.000000000e+00 6.747408788e-20)
         0.00595	1.013147843e+05	(0.000000000e+00 0.000000000e+00 4.048445273e-20)
        0.005975	1.013147194e+05	(-1.349481758e-20 0.000000000e+00 0.000000000e+00)
           0.006	1.013146580e+05	(1.484429933e-19 0.000000000e+00 -3.643600746e-19)
        0.006025	1.013145999e+05	(1.349481758e-20 0.000000000e+00 1.349481758e-20)
         0.00605	1.013145446e+05	(1.349481758e-19 0.000000000e+00 -1.349481758e-19)
        0.006075	1.013144921e+05	(6.747408788e-20 0.000000000e+00 -6.747408788e-20)
          0.0061	1.013144420e+05	(-1.889274461e-19 0.000000000e+00 1.754326285e-19)
        0.006125	1.013143943e+05	(0.000000000e+00 0.000000000e+00 1.889274461e-19)
         0.00615	1.013143487e+05	(2.698963515e-20 0.000000000e+00 0.000000000e+00)
        0.006175	1.013143053e+05	(-1.754326285e-19 0.000000000e+00 -5.397927031e-20)
          0.0062	1.013142639e+05	(-1.754326285e-19 0.000000000e+00 1.619378109e-19)
        0.006225	1.013142244e+05	(1.889274461e-19 0.000000000e+00 -1.349481758e-19)
         0.00625	1.013141870e+05	(-3.238756218e-19 0.000000000e+00 3.238756218e-19)
        0.006275	1.013141515e+05	(1.484429933e-19 0.000000000e+00 -1.619378109e-19)
          0.0063	1.013141180e+05	(3.103808043e-19 0.000000000e+00 1.349481758e-19)
        0.006325	1.013140865e+05	(-1.349481758e-20 0.000000000e+00 1.889274461e-19)
         0.00635	1.013140570e+05	(-1.349481758e-19 0.000000000e+00 -2.968859867e-19)
        0.006375	1.013140295e+05	(-2.698963515e-20 0.000000000e+00 -1.889274461e-19)
          0.0064	1.013140040e+05	(8.096890546e-20 0.000000000e+00 -8.096890546e-20)
        0.006425	1.013139805e+05	(1.079585406e-19 0.000000000e+00 3.508652570e-19)
         0.00645	1.013139591e+05	(-8.096890546e-20 0.000000000e+00 8.096890546e-20)
        0.006475	1.013139398e+05	(0.000000000e+00 0.000000000e+00 -2.159170812e-19)
          0.0065	1.013139226e+05	(2.698963515e-20 0.000000000e+00 1.889274461e-19)
        0.006525	1.013139075e+05	(3.508652570e-19 0.000000000e+00 8.096890546e-20)
         0.00655	1.013138946e+05	(-1.079585406e-19 0.000000000e+00 1.079585406e-19)
        0.006575	1.013138840e+05	(2.429067164e-19 0.000000000e+00 -2.698963515e-20)
          0.0066	1.013138757e+05	(0.000000000e+00 0.000000000e+00 -2.159170812e-19)
        0.006625	1.013138700e+05	(-8.096890546e-20 0.000000000e+00 -3.508652570e-19)
         0.00665	1.013138667e+05	(-2.698963515e-19 0.000000000e+00 2.429067164e-19)
        0.006675	1.013138661e+05	(1.349481758e-19 0.000000000e+00 -8.096890546e-20)
          0.0067	1.013138683e+05	(0.000000000e+00 0.000000000e+00 1.889274461e-19)
        0.006725	1.013138733e+05	(2.968859867e-19 0.000000000e+00 1.349481758e-19)
         0.00675	1.013138812e+05	(-2.698963515e-20 0.000000000e+00 5.397927031e-20)
        0.006775	1.013138922e+05	(-3.508652570e-19 0.000000000e+00 2.698963515e-19)
          0.0068	1.013139062e+05	(2.429067164e-19 0.000000000e+00 -6.747408788e-19)
        0.006825	1.013139233e+05	(-2.698963515e-20 0.000000000e+00 2.698963515e-20)
         0.00685	1.013139435e+05	(0.000000000e+00 0.000000000e+00 -1.889274461e-19)
        0.006875	1.013139667e+05	(-8.096890546e-20 0.000000000e+00 1.079585406e-19)
          0.0069	1.013139931e+05	(-1.349481758e-19 0.000000000e+00 1.349481758e-19)
        0.006925	1.013140224e+05	(-2.968859867e-19 0.000000000e+00 3.238756218e-19)
         0.00695	1.013140547e+05	(2.698963515e-20 0.000000000e+00 0.000000000e+00)
        0.006975	1.013140898e+05	(1.619378109e-19 0.000000000e+00 2.698963515e-19)
           0.007	1.013141277e+05	(3.238756218e-19 0.000000000e+00 -3.238756218e-19)
        0.007025	1.013141683e+05	(2.698963515e-19 0.000000000e+00 -2.968859867e-19)
         0.00705	1.013142114e+05	(1.349481758e-19 0.000000000e+00 -1.349481758e-19)
        0.007075	1.013142571e+05	(2.698963515e-20 0.000000000e+00 -4.858134328e-19)
          0.0071	1.013143051e+05	(2.698963515e-20 0.000000000e+00 -4.318341624e-19)
        0.007125	1.013143554e+05	(-4.048445273e-19 0.000000000e+00 1.889274461e-19)
         0.00715	1.013144080e+05	(-2.698963515e-20 0.000000000e+00 -4.048445273e-19)
        0.007175	1.013144627e+05	(-5.397927031e-20 0.000000000e+00 8.096890546e-20)
          0.0072	1.013145197e+05	(0.000000000e+00 0.000000000e+00 -2.698963515e-20)
        0.007225	1.013145788e+05	(8.096890546e-20 0.000000000e+00 -5.397927031e-20)
         0.00725	1.013146400e+05	(-5.667823382e-19 0.000000000e+00 5.397927031e-19)
        0.007275	1.013147034e+05	(1.349481758e-19 0.000000000e+00 -1.079585406e-19)
          0.0073	1.013147689e+05	(-2.159170812e-19 0.000000000e+00 -4.588237976e-19)
        0.007325	1.013148366e+05	(2.698963515e-19 0.000000000e+00 -8.096890546e-20)
         0.00735	1.013149065e+05	(-1.619378109e-19 0.000000000e+00 -7.287201491e-19)
        0.007375	1.013149787e+05	(1.079585406e-19 0.000000000e+00 4.048445273e-19)
          0.0074	1.013150531e+05	(2.429067164e-19 0.000000000e+00 -2.429067164e-19)
        0.007425	1.013151299e+05	(0.000000000e+00 0.000000000e+00 2.698963515e-20)
         0.00745	1.013152090e+05	(-1.079585406e-19 0.000000000e+00 1.349481758e-19)
        0.007475	1.013152904e+05	(8.096890546e-20 0.000000000e+00 3.778548921e-19)
          0.0075	1.013153742e+05	(1.349481758e-19 0.000000000e+00 -1.619378109e-19)
        0.007525	1.013154604e+05	(0.000000000e+00 0.000000000e+00 0.000000000e+00)
         0.00755	1.013155489e+05	(-3.238756218e-19 0.000000000e+00 3.238756218e-19)
        0.007575	1.013156398e+05	(-1.889274461e-19 0.000000000e+00 1.889274461e-19)
          0.0076	1.013157331e+05	(1.889274461e-19 0.000000000e+00 -1.889274461e-19)
        0.007625	1.013158286e+05	(-8.096890546e-20 0.000000000e+00 5.397927031e-20)
         0.00765	1.013159264e+05	(-1.349481758e-19 0.000000000e+00 1.349481758e-19)
        0.007675	1.013160265e+05	(1.889274461e-19 0.000000000e+00 4.588237976e-19)
          0.0077	1.013161287e+05	(-1.349481758e-19 0.000000000e+00 1.619378109e-19)
        0.007725	1.013162330e+05	(1.619378109e-19 0.000000000e+00 -5.667823382e-19)
         0.00775	1.013163393e+05	(2.698963515e-19 0.000000000e+00 1.889274461e-19)
        0.007775	1.013164476e+05	(-3.508652570e-19 0.000000000e+00 3.238756218e-19)
          0.0078	1.013165578e+05	(2.429067164e-19 0.000000000e+00 -1.889274461e-19)
        0.007825	1.013166699e+05	(-1.889274461e-19 0.000000000e+00 1.079585406e-19)
         0.00785	1.013167836e+05	(-1.079585406e-19 0.000000000e+00 8.096890546e-20)
        0.007875	1.013168990e+05	(-2.968859867e-19 0.000000000e+00 -1.349481758e-19)
          0.0079	1.013170160e+05	(-2.159170812e-19 0.000000000e+00 -4.858134328e-19)
        0.007925	1.013171343e+05	(-2.698963515e-20 0.000000000e+00 2.698963515e-20)
         0.00795	1.013172540e+05	(-1.889274461e-19 0.000000000e+00 1.889274461e-19)
        0.007975	1.013173749e+05	(-2.698963515e-20 0.000000000e+00 -4.318341624e-19)
           0.008	1.013174968e+05	(4.048445273e-19 0.000000000e+00 5.397927031e-20)
        0.008025	1.013176196e+05	(5.397927031e-20 0.000000000e+00 -2.698963515e-19)
         0.00805	1.013177432e+05	(-2.429067164e-19 0.000000000e+00 5.397927031e-20)
        0.008075	1.013178678e+05	(3.238756218e-19 0.000000000e+00 1.349481758e-19)
          0.0081	1.013179937e+05	(-1.349481758e-19 0.000000000e+00 -5.397927031e-20)
        0.008125	1.013181212e+05	(-2.698963515e-20 0.000000000e+00 5.397927031e-20)
         0.00815	1.013182509e+05	(-8.096890546e-20 0.000000000e+00 5.397927031e-20)
        0.008175	1.013183832e+05	(-2.429067164e-19 0.000000000e+00 2.698963515e-19)
          0.0082	1.013185183e+05	(0.000000000e+00 0.000000000e+00 0.000000000e+00)
        0.008225	1.013186565e+05	(0.000000000e+00 0.000000000e+00 5.397927031e-20)
         0.00825	1.013187980e+05	(2.698963515e-19 0.000000000e+00 1.079585406e-19)
        0.008275	1.013189428e+05	(4.858134328e-19 0.000000000e+00 -4.858134328e-19)
          0.0083	1.013190907e+05	(2.159170812e-19 0.000000000e+00 -2.159170812e-19)
        0.008325	1.013192417e+05	(1.619378109e-19 0.000000000e+00 -1.889274461e-19)
         0.00835	1.013193953e+05	(8.096890546e-20 0.000000000e+00 -8.096890546e-20)
        0.008375	1.013195516e+05	(-1.079585406e-19 0.000000000e+00 8.096890546e-20)
          0.0084	1.013197101e+05	(0.000000000e+00 0.000000000e+00 0.000000000e+00)
        0.008425	1.013198705e+05	(3.508652570e-19 0.000000000e+00 -3.238756218e-19)
         0.00845	1.013200328e+05	(8.096890546e-20 0.000000000e+00 3.238756218e-19)
        0.008475	1.013201965e+05	(-1.349481758e-19 0.000000000e+00 1.349481758e-19)
          0.0085	1.013203616e+05	(2.698963515e-20 0.000000000e+00 -4.318341624e-19)
        0.008525	1.013205277e+05	(2.698963515e-20 0.000000000e+00 -2.429067164e-19)
         0.00855	1.013206947e+05	(8.096890546e-20 0.000000000e+00 -8.096890546e-20)
        0.008575	1.013208624e+05	(-8.096890546e-20 0.000000000e+00 -1.619378109e-19)
          0.0086	1.013210307e+05	(-1.079585406e-19 0.000000000e+00 -8.096890546e-20)
        0.008625	1.013211993e+05	(1.349481758e-19 0.000000000e+00 2.698963515e-20)
         0.00865	1.013213682e+05	(1.889274461e-19 0.000000000e+00 2.429067164e-19)
        0.008675	1.013215372e+05	(-9.446372304e-20 0.000000000e+00 8.096890546e-20)
          0.0087	1.013217062e+05	(9.446372304e-20 0.000000000e+00 -3.238756218e-19)
        0.008725	1.013218749e+05	(-9.446372304e-20 0.000000000e+00 8.096890546e-20)
         0.00875	1.013220434e+05	(2.698963515e-20 0.000000000e+00 0.000000000e+00)
        0.008775	1.013222114e+05	(8.096890546e-20 0.000000000e+00 -5.397927031e-20)
          0.0088	1.013223790e+05	(-5.397927031e-20 0.000000000e+00 5.397927031e-20)
        0.008825	1.013225461e+05	(-1.349481758e-19 0.000000000e+00 1.079585406e-19)
         0.00885	1.013227126e+05	(-1.349481758e-20 0.000000000e+00 3.778548921e-19)
        0.008875	1.013228787e+05	(2.564015340e-19 0.000000000e+00 -2.429067164e-19)